MODEL 1
REMARK VINA RESULT:      -5.5      0.000      0.000
REMARK SMILES C(=C(c1ccc(OCCN2CCCCCC2)cc1)c1ccc(OCCN2CCCCCC2)cc1)c1ccccc1
REMARK SMILES IDX 1 1 2 2 35 3 36 4 40 5 37 6 39 7 38 8 3 9 4 10 18 11 5 12
REMARK SMILES IDX 17 13 6 14 7 15 8 16 9 17 10 18 11 19 12 20 13 21 16 23
REMARK SMILES IDX 15 24 14 25 19 27 20 28 34 29 21 30 33 31 22 32 23 33 24 34
REMARK SMILES IDX 25 35 26 36 27 37 28 38 29 39 32 41 31 42 30 43
REMARK H PARENT
REMARK Flexibility Score:   68.800
ROOT
ATOM      1  C   UNL     1      10.032 193.608  42.983  1.00  0.00     0.017 C 
ATOM      2  C   UNL     1      10.578 193.477  41.752  1.00  0.00    -0.011 C 
ENDROOT
BRANCH   1   3
ATOM      3  C   UNL     1      10.576 193.147  44.271  1.00  0.00    -0.025 A 
ATOM      4  C   UNL     1      10.933 194.096  45.237  1.00  0.00     0.008 A 
ATOM      5  C   UNL     1      10.700 191.787  44.574  1.00  0.00     0.008 A 
ATOM      6  C   UNL     1      11.435 193.691  46.476  1.00  0.00     0.001 A 
ATOM      7  C   UNL     1      11.204 191.382  45.813  1.00  0.00     0.001 A 
ATOM      8  C   UNL     1      11.572 192.334  46.762  1.00  0.00     0.000 A 
ENDBRANCH   1   3
BRANCH   2   9
ATOM      9  C   UNL     1      11.917 192.863  41.544  1.00  0.00    -0.018 A 
ATOM     10  C   UNL     1      13.067 193.652  41.675  1.00  0.00     0.012 A 
ATOM     11  C   UNL     1      12.065 191.498  41.270  1.00  0.00     0.012 A 
ATOM     12  C   UNL     1      14.342 193.091  41.528  1.00  0.00     0.047 A 
ATOM     13  C   UNL     1      13.338 190.943  41.115  1.00  0.00     0.047 A 
ATOM     14  C   UNL     1      14.481 191.731  41.258  1.00  0.00     0.119 A 
BRANCH  14  15
ATOM     15  O   UNL     1      15.663 191.065  41.087  1.00  0.00    -0.492 OA
BRANCH  15  16
ATOM     16  C   UNL     1      15.622 189.634  41.042  1.00  0.00     0.245 C 
BRANCH  16  17
ATOM     17  C   UNL     1      16.389 189.111  39.815  1.00  0.00     0.126 C 
BRANCH  17  18
ATOM     18  N   UNL     1      15.692 188.137  38.948  1.00  0.00    -0.300 NA
BRANCH  18  19
ATOM     19  C   UNL     1      16.621 187.142  38.406  1.00  0.00     0.084 C 
BRANCH  19  20
ATOM     20  C   UNL     1      18.076 187.283  38.863  1.00  0.00     0.016 C 
BRANCH  20  21
ATOM     21  C   UNL     1      18.594 186.049  39.590  1.00  0.00     0.001 C
ENDBRANCH  20  21
ENDBRANCH  19  20
ENDBRANCH  18  19
BRANCH  18  23
ATOM     23  C   UNL     1      14.503 187.579  39.602  1.00  0.00     0.084 C 
BRANCH  23  24
ATOM     24  C   UNL     1      14.728 186.144  40.076  1.00  0.00     0.016 C 
BRANCH  24  25
ATOM     25  C   UNL     1      14.749 185.947  41.588  1.00  0.00     0.001 C
ENDBRANCH  24  25
ENDBRANCH  23  24
ENDBRANCH  18  23
ENDBRANCH  17  18
ENDBRANCH  16  17
ENDBRANCH  15  16
ENDBRANCH  14  15
ENDBRANCH   2   9
BRANCH   2  27
ATOM     27  C   UNL     1       9.780 194.011  40.613  1.00  0.00    -0.018 A 
ATOM     28  C   UNL     1      10.204 195.128  39.878  1.00  0.00     0.012 A 
ATOM     29  C   UNL     1       8.553 193.420  40.284  1.00  0.00     0.012 A 
ATOM     30  C   UNL     1       9.430 195.631  38.824  1.00  0.00     0.047 A 
ATOM     31  C   UNL     1       7.783 193.926  39.233  1.00  0.00     0.047 A 
ATOM     32  C   UNL     1       8.219 195.026  38.493  1.00  0.00     0.119 A 
BRANCH  32  33
ATOM     33  O   UNL     1       7.369 195.417  37.497  1.00  0.00    -0.492 OA
BRANCH  33  34
ATOM     34  C   UNL     1       7.559 196.728  36.961  1.00  0.00     0.245 C 
BRANCH  34  35
ATOM     35  C   UNL     1       6.483 197.678  37.526  1.00  0.00     0.126 C 
BRANCH  35  36
ATOM     36  N   UNL     1       5.563 198.266  36.532  1.00  0.00    -0.300 NA
BRANCH  36  37
ATOM     37  C   UNL     1       5.612 197.582  35.237  1.00  0.00     0.084 C 
BRANCH  37  38
ATOM     38  C   UNL     1       4.393 196.723  34.875  1.00  0.00     0.016 C 
BRANCH  38  39
ATOM     39  C   UNL     1       4.586 195.696  33.749  1.00  0.00     0.001 C
ENDBRANCH  38  39
ENDBRANCH  37  38
ENDBRANCH  36  37
BRANCH  36  41
ATOM     41  C   UNL     1       5.654 199.725  36.491  1.00  0.00     0.084 C 
BRANCH  41  42
ATOM     42  C   UNL     1       4.978 200.428  35.310  1.00  0.00     0.016 C 
BRANCH  42  43
ATOM     43  C   UNL     1       3.497 200.765  35.486  1.00  0.00     0.001 C
ENDBRANCH  42  43
ENDBRANCH  41  42
ENDBRANCH  36  41
ENDBRANCH  35  36
ENDBRANCH  34  35
ENDBRANCH  33  34
ENDBRANCH  32  33
ENDBRANCH   2  27
TORSDOF 11
ENDMDL
MODEL 2
REMARK VINA RESULT:      -5.5      3.040     10.835
REMARK SMILES C(=C(c1ccc(OCCN2CCCCCC2)cc1)c1ccc(OCCN2CCCCCC2)cc1)c1ccccc1
REMARK SMILES IDX 1 1 2 2 35 3 36 4 40 5 37 6 39 7 38 8 3 9 4 10 18 11 5 12
REMARK SMILES IDX 17 13 6 14 7 15 8 16 9 17 10 18 11 19 12 20 13 21 16 23
REMARK SMILES IDX 15 24 14 25 19 27 20 28 34 29 21 30 33 31 22 32 23 33 24 34
REMARK SMILES IDX 25 35 26 36 27 37 28 38 29 39 32 41 31 42 30 43
REMARK H PARENT
REMARK Flexibility Score:   68.800
ROOT
ATOM      1  C   UNL     1       8.169 192.535  38.879  1.00  0.00     0.017 C 
ATOM      2  C   UNL     1       8.578 193.724  39.380  1.00  0.00    -0.011 C 
ENDROOT
BRANCH   1   3
ATOM      3  C   UNL     1       7.633 192.251  37.538  1.00  0.00    -0.025 A 
ATOM      4  C   UNL     1       6.315 192.618  37.240  1.00  0.00     0.008 A 
ATOM      5  C   UNL     1       8.420 191.668  36.538  1.00  0.00     0.008 A 
ATOM      6  C   UNL     1       5.783 192.380  35.971  1.00  0.00     0.001 A 
ATOM      7  C   UNL     1       7.887 191.428  35.269  1.00  0.00     0.001 A 
ATOM      8  C   UNL     1       6.569 191.782  34.987  1.00  0.00     0.000 A 
ENDBRANCH   1   3
BRANCH   2   9
ATOM      9  C   UNL     1       8.594 194.963  38.556  1.00  0.00    -0.018 A 
ATOM     10  C   UNL     1       9.785 195.366  37.938  1.00  0.00     0.012 A 
ATOM     11  C   UNL     1       7.434 195.716  38.338  1.00  0.00     0.012 A 
ATOM     12  C   UNL     1       9.819 196.504  37.123  1.00  0.00     0.047 A 
ATOM     13  C   UNL     1       7.473 196.856  37.530  1.00  0.00     0.047 A 
ATOM     14  C   UNL     1       8.659 197.247  36.907  1.00  0.00     0.119 A 
BRANCH  14  15
ATOM     15  O   UNL     1       8.561 198.375  36.142  1.00  0.00    -0.492 OA
BRANCH  15  16
ATOM     16  C   UNL     1       9.745 199.155  35.947  1.00  0.00     0.245 C 
BRANCH  16  17
ATOM     17  C   UNL     1       9.901 200.189  37.076  1.00  0.00     0.126 C 
BRANCH  17  18
ATOM     18  N   UNL     1       8.863 200.199  38.130  1.00  0.00    -0.300 NA
BRANCH  18  19
ATOM     19  C   UNL     1       9.459 200.180  39.468  1.00  0.00     0.084 C 
BRANCH  19  20
ATOM     20  C   UNL     1      10.317 198.952  39.789  1.00  0.00     0.016 C 
BRANCH  20  21
ATOM     21  C   UNL     1      10.687 198.854  41.264  1.00  0.00     0.001 C
ENDBRANCH  20  21
ENDBRANCH  19  20
ENDBRANCH  18  19
BRANCH  18  23
ATOM     23  C   UNL     1       7.874 201.259  37.910  1.00  0.00     0.084 C 
BRANCH  23  24
ATOM     24  C   UNL     1       6.441 200.746  38.046  1.00  0.00     0.016 C 
BRANCH  24  25
ATOM     25  C   UNL     1       5.726 200.438  36.734  1.00  0.00     0.001 C
ENDBRANCH  24  25
ENDBRANCH  23  24
ENDBRANCH  18  23
ENDBRANCH  17  18
ENDBRANCH  16  17
ENDBRANCH  15  16
ENDBRANCH  14  15
ENDBRANCH   2   9
BRANCH   2  27
ATOM     27  C   UNL     1       9.043 193.722  40.795  1.00  0.00    -0.018 A 
ATOM     28  C   UNL     1       9.550 194.880  41.404  1.00  0.00     0.012 A 
ATOM     29  C   UNL     1       9.022 192.533  41.534  1.00  0.00     0.012 A 
ATOM     30  C   UNL     1      10.004 194.856  42.729  1.00  0.00     0.047 A 
ATOM     31  C   UNL     1       9.478 192.511  42.855  1.00  0.00     0.047 A 
ATOM     32  C   UNL     1       9.962 193.671  43.462  1.00  0.00     0.119 A 
BRANCH  32  33
ATOM     33  O   UNL     1      10.378 193.509  44.754  1.00  0.00    -0.492 OA
BRANCH  33  34
ATOM     34  C   UNL     1      11.559 192.733  44.962  1.00  0.00     0.245 C 
BRANCH  34  35
ATOM     35  C   UNL     1      12.633 193.140  43.932  1.00  0.00     0.126 C 
BRANCH  35  36
ATOM     36  N   UNL     1      13.468 192.039  43.411  1.00  0.00    -0.300 NA
BRANCH  36  37
ATOM     37  C   UNL     1      13.789 192.191  41.990  1.00  0.00     0.084 C 
BRANCH  37  38
ATOM     38  C   UNL     1      12.877 193.126  41.183  1.00  0.00     0.016 C 
BRANCH  38  39
ATOM     39  C   UNL     1      13.550 193.966  40.088  1.00  0.00     0.001 C
ENDBRANCH  38  39
ENDBRANCH  37  38
ENDBRANCH  36  37
BRANCH  36  41
ATOM     41  C   UNL     1      12.968 190.727  43.819  1.00  0.00     0.084 C 
BRANCH  41  42
ATOM     42  C   UNL     1      12.508 189.783  42.703  1.00  0.00     0.016 C 
BRANCH  42  43
ATOM     43  C   UNL     1      13.395 188.563  42.447  1.00  0.00     0.001 C
ENDBRANCH  42  43
ENDBRANCH  41  42
ENDBRANCH  36  41
ENDBRANCH  35  36
ENDBRANCH  34  35
ENDBRANCH  33  34
ENDBRANCH  32  33
ENDBRANCH   2  27
TORSDOF 11
ENDMDL
MODEL 3
REMARK VINA RESULT:      -5.4      1.521      2.558
REMARK SMILES C(=C(c1ccc(OCCN2CCCCCC2)cc1)c1ccc(OCCN2CCCCCC2)cc1)c1ccccc1
REMARK SMILES IDX 1 1 2 2 35 3 36 4 40 5 37 6 39 7 38 8 3 9 4 10 18 11 5 12
REMARK SMILES IDX 17 13 6 14 7 15 8 16 9 17 10 18 11 19 12 20 13 21 16 23
REMARK SMILES IDX 15 24 14 25 19 27 20 28 34 29 21 30 33 31 22 32 23 33 24 34
REMARK SMILES IDX 25 35 26 36 27 37 28 38 29 39 32 41 31 42 30 43
REMARK H PARENT
REMARK Flexibility Score:   68.800
ROOT
ATOM      1  C   UNL     1      10.068 193.928  42.894  1.00  0.00     0.017 C 
ATOM      2  C   UNL     1      10.135 193.276  41.710  1.00  0.00    -0.011 C 
ENDROOT
BRANCH   1   3
ATOM      3  C   UNL     1      10.518 193.460  44.215  1.00  0.00    -0.025 A 
ATOM      4  C   UNL     1      10.577 192.084  44.465  1.00  0.00     0.008 A 
ATOM      5  C   UNL     1      10.933 194.352  45.211  1.00  0.00     0.008 A 
ATOM      6  C   UNL     1      11.017 191.607  45.702  1.00  0.00     0.001 A 
ATOM      7  C   UNL     1      11.372 193.874  46.449  1.00  0.00     0.001 A 
ATOM      8  C   UNL     1      11.412 192.503  46.693  1.00  0.00     0.000 A 
ENDBRANCH   1   3
BRANCH   2   9
ATOM      9  C   UNL     1      10.773 191.938  41.582  1.00  0.00    -0.018 A 
ATOM     10  C   UNL     1       9.971 190.789  41.566  1.00  0.00     0.012 A 
ATOM     11  C   UNL     1      12.156 191.794  41.425  1.00  0.00     0.012 A 
ATOM     12  C   UNL     1      10.540 189.520  41.404  1.00  0.00     0.047 A 
ATOM     13  C   UNL     1      12.723 190.526  41.272  1.00  0.00     0.047 A 
ATOM     14  C   UNL     1      11.919 189.386  41.246  1.00  0.00     0.119 A 
BRANCH  14  15
ATOM     15  O   UNL     1      12.596 188.209  41.085  1.00  0.00    -0.492 OA
BRANCH  15  16
ATOM     16  C   UNL     1      13.873 188.258  40.439  1.00  0.00     0.245 C 
BRANCH  16  17
ATOM     17  C   UNL     1      14.755 187.084  40.900  1.00  0.00     0.126 C 
BRANCH  17  18
ATOM     18  N   UNL     1      16.177 187.111  40.496  1.00  0.00    -0.300 NA
BRANCH  18  19
ATOM     19  C   UNL     1      17.054 187.366  41.642  1.00  0.00     0.084 C 
BRANCH  19  20
ATOM     20  C   UNL     1      18.048 188.518  41.466  1.00  0.00     0.016 C 
BRANCH  20  21
ATOM     21  C   UNL     1      17.555 189.586  40.498  1.00  0.00     0.001 C
ENDBRANCH  20  21
ENDBRANCH  19  20
ENDBRANCH  18  19
BRANCH  18  23
ATOM     23  C   UNL     1      16.538 185.938  39.693  1.00  0.00     0.084 C 
BRANCH  23  24
ATOM     24  C   UNL     1      17.213 186.326  38.379  1.00  0.00     0.016 C 
BRANCH  24  25
ATOM     25  C   UNL     1      18.734 186.421  38.425  1.00  0.00     0.001 C
ENDBRANCH  24  25
ENDBRANCH  23  24
ENDBRANCH  18  23
ENDBRANCH  17  18
ENDBRANCH  16  17
ENDBRANCH  15  16
ENDBRANCH  14  15
ENDBRANCH   2   9
BRANCH   2  27
ATOM     27  C   UNL     1       9.564 193.983  40.530  1.00  0.00    -0.018 A 
ATOM     28  C   UNL     1      10.288 194.968  39.842  1.00  0.00     0.012 A 
ATOM     29  C   UNL     1       8.257 193.700  40.113  1.00  0.00     0.012 A 
ATOM     30  C   UNL     1       9.727 195.640  38.748  1.00  0.00     0.047 A 
ATOM     31  C   UNL     1       7.700 194.373  39.023  1.00  0.00     0.047 A 
ATOM     32  C   UNL     1       8.432 195.339  38.330  1.00  0.00     0.119 A 
BRANCH  32  33
ATOM     33  O   UNL     1       7.767 195.921  37.287  1.00  0.00    -0.492 OA
BRANCH  33  34
ATOM     34  C   UNL     1       7.768 197.348  37.234  1.00  0.00     0.245 C 
BRANCH  34  35
ATOM     35  C   UNL     1       6.327 197.859  37.030  1.00  0.00     0.126 C 
BRANCH  35  36
ATOM     36  N   UNL     1       5.847 197.880  35.634  1.00  0.00    -0.300 NA
BRANCH  36  37
ATOM     37  C   UNL     1       6.866 198.342  34.689  1.00  0.00     0.084 C 
BRANCH  37  38
ATOM     38  C   UNL     1       6.351 198.969  33.386  1.00  0.00     0.016 C 
BRANCH  38  39
ATOM     39  C   UNL     1       6.947 198.427  32.078  1.00  0.00     0.001 C
ENDBRANCH  38  39
ENDBRANCH  37  38
ENDBRANCH  36  37
BRANCH  36  41
ATOM     41  C   UNL     1       4.530 198.503  35.513  1.00  0.00     0.084 C 
BRANCH  41  42
ATOM     42  C   UNL     1       3.359 197.585  35.149  1.00  0.00     0.016 C 
BRANCH  42  43
ATOM     43  C   UNL     1       3.706 196.358  34.304  1.00  0.00     0.001 C
ENDBRANCH  42  43
ENDBRANCH  41  42
ENDBRANCH  36  41
ENDBRANCH  35  36
ENDBRANCH  34  35
ENDBRANCH  33  34
ENDBRANCH  32  33
ENDBRANCH   2  27
TORSDOF 11
ENDMDL
MODEL 4
REMARK VINA RESULT:      -5.3      1.257      2.624
REMARK SMILES C(=C(c1ccc(OCCN2CCCCCC2)cc1)c1ccc(OCCN2CCCCCC2)cc1)c1ccccc1
REMARK SMILES IDX 1 1 2 2 35 3 36 4 40 5 37 6 39 7 38 8 3 9 4 10 18 11 5 12
REMARK SMILES IDX 17 13 6 14 7 15 8 16 9 17 10 18 11 19 12 20 13 21 16 23
REMARK SMILES IDX 15 24 14 25 19 27 20 28 34 29 21 30 33 31 22 32 23 33 24 34
REMARK SMILES IDX 25 35 26 36 27 37 28 38 29 39 32 41 31 42 30 43
REMARK H PARENT
REMARK Flexibility Score:   68.800
ROOT
ATOM      1  C   UNL     1       9.991 193.826  42.891  1.00  0.00     0.017 C 
ATOM      2  C   UNL     1      10.614 193.837  41.690  1.00  0.00    -0.011 C 
ENDROOT
BRANCH   1   3
ATOM      3  C   UNL     1      10.507 193.329  44.177  1.00  0.00    -0.025 A 
ATOM      4  C   UNL     1      10.837 194.250  45.179  1.00  0.00     0.008 A 
ATOM      5  C   UNL     1      10.633 191.960  44.441  1.00  0.00     0.008 A 
ATOM      6  C   UNL     1      11.311 193.810  46.417  1.00  0.00     0.001 A 
ATOM      7  C   UNL     1      11.110 191.521  45.679  1.00  0.00     0.001 A 
ATOM      8  C   UNL     1      11.450 192.446  46.665  1.00  0.00     0.000 A 
ENDBRANCH   1   3
BRANCH   2   9
ATOM      9  C   UNL     1      12.017 193.372  41.525  1.00  0.00    -0.018 A 
ATOM     10  C   UNL     1      13.073 194.244  41.821  1.00  0.00     0.012 A 
ATOM     11  C   UNL     1      12.317 192.063  41.129  1.00  0.00     0.012 A 
ATOM     12  C   UNL     1      14.403 193.820  41.717  1.00  0.00     0.047 A 
ATOM     13  C   UNL     1      13.645 191.645  41.017  1.00  0.00     0.047 A 
ATOM     14  C   UNL     1      14.694 192.514  41.324  1.00  0.00     0.119 A 
BRANCH  14  15
ATOM     15  O   UNL     1      15.943 191.979  41.178  1.00  0.00    -0.492 OA
BRANCH  15  16
ATOM     16  C   UNL     1      16.080 190.560  41.301  1.00  0.00     0.245 C 
BRANCH  16  17
ATOM     17  C   UNL     1      17.382 190.084  40.634  1.00  0.00     0.126 C 
BRANCH  17  18
ATOM     18  N   UNL     1      17.341 188.787  39.923  1.00  0.00    -0.300 NA
BRANCH  18  19
ATOM     19  C   UNL     1      16.015 188.172  40.010  1.00  0.00     0.084 C 
BRANCH  19  20
ATOM     20  C   UNL     1      15.316 187.923  38.669  1.00  0.00     0.016 C 
BRANCH  20  21
ATOM     21  C   UNL     1      14.197 186.893  38.763  1.00  0.00     0.001 C
ENDBRANCH  20  21
ENDBRANCH  19  20
ENDBRANCH  18  19
BRANCH  18  23
ATOM     23  C   UNL     1      17.885 188.893  38.565  1.00  0.00     0.084 C 
BRANCH  23  24
ATOM     24  C   UNL     1      19.118 188.014  38.369  1.00  0.00     0.016 C 
BRANCH  24  25
ATOM     25  C   UNL     1      18.872 186.511  38.446  1.00  0.00     0.001 C
ENDBRANCH  24  25
ENDBRANCH  23  24
ENDBRANCH  18  23
ENDBRANCH  17  18
ENDBRANCH  16  17
ENDBRANCH  15  16
ENDBRANCH  14  15
ENDBRANCH   2   9
BRANCH   2  27
ATOM     27  C   UNL     1       9.829 194.371  40.541  1.00  0.00    -0.018 A 
ATOM     28  C   UNL     1       8.514 193.952  40.291  1.00  0.00     0.012 A 
ATOM     29  C   UNL     1      10.421 195.281  39.656  1.00  0.00     0.012 A 
ATOM     30  C   UNL     1       7.799 194.447  39.193  1.00  0.00     0.047 A 
ATOM     31  C   UNL     1       9.705 195.772  38.561  1.00  0.00     0.047 A 
ATOM     32  C   UNL     1       8.390 195.366  38.328  1.00  0.00     0.119 A 
BRANCH  32  33
ATOM     33  O   UNL     1       7.809 195.920  37.223  1.00  0.00    -0.492 OA
BRANCH  33  34
ATOM     34  C   UNL     1       7.129 197.165  37.403  1.00  0.00     0.245 C 
BRANCH  34  35
ATOM     35  C   UNL     1       6.172 197.407  36.219  1.00  0.00     0.126 C 
BRANCH  35  36
ATOM     36  N   UNL     1       6.338 198.695  35.516  1.00  0.00    -0.300 NA
BRANCH  36  37
ATOM     37  C   UNL     1       5.390 199.716  35.966  1.00  0.00     0.084 C 
BRANCH  37  38
ATOM     38  C   UNL     1       5.936 200.769  36.942  1.00  0.00     0.016 C 
BRANCH  38  39
ATOM     39  C   UNL     1       7.464 200.867  37.064  1.00  0.00     0.001 C
ENDBRANCH  38  39
ENDBRANCH  37  38
ENDBRANCH  36  37
BRANCH  36  41
ATOM     41  C   UNL     1       6.455 198.522  34.068  1.00  0.00     0.084 C 
BRANCH  41  42
ATOM     42  C   UNL     1       7.854 198.672  33.463  1.00  0.00     0.016 C 
BRANCH  42  43
ATOM     43  C   UNL     1       7.964 198.435  31.956  1.00  0.00     0.001 C
ENDBRANCH  42  43
ENDBRANCH  41  42
ENDBRANCH  36  41
ENDBRANCH  35  36
ENDBRANCH  34  35
ENDBRANCH  33  34
ENDBRANCH  32  33
ENDBRANCH   2  27
TORSDOF 11
ENDMDL
MODEL 5
REMARK VINA RESULT:      -5.3      1.119      2.302
REMARK SMILES C(=C(c1ccc(OCCN2CCCCCC2)cc1)c1ccc(OCCN2CCCCCC2)cc1)c1ccccc1
REMARK SMILES IDX 1 1 2 2 35 3 36 4 40 5 37 6 39 7 38 8 3 9 4 10 18 11 5 12
REMARK SMILES IDX 17 13 6 14 7 15 8 16 9 17 10 18 11 19 12 20 13 21 16 23
REMARK SMILES IDX 15 24 14 25 19 27 20 28 34 29 21 30 33 31 22 32 23 33 24 34
REMARK SMILES IDX 25 35 26 36 27 37 28 38 29 39 32 41 31 42 30 43
REMARK H PARENT
REMARK Flexibility Score:   68.800
ROOT
ATOM      1  C   UNL     1       9.878 193.823  42.739  1.00  0.00     0.017 C 
ATOM      2  C   UNL     1      10.522 193.848  41.549  1.00  0.00    -0.011 C 
ENDROOT
BRANCH   1   3
ATOM      3  C   UNL     1      10.379 193.328  44.032  1.00  0.00    -0.025 A 
ATOM      4  C   UNL     1      10.525 191.949  44.222  1.00  0.00     0.008 A 
ATOM      5  C   UNL     1      10.757 194.202  45.058  1.00  0.00     0.008 A 
ATOM      6  C   UNL     1      11.016 191.449  45.431  1.00  0.00     0.001 A 
ATOM      7  C   UNL     1      11.245 193.700  46.268  1.00  0.00     0.001 A 
ATOM      8  C   UNL     1      11.373 192.325  46.453  1.00  0.00     0.000 A 
ENDBRANCH   1   3
BRANCH   2   9
ATOM      9  C   UNL     1      11.935 193.404  41.407  1.00  0.00    -0.018 A 
ATOM     10  C   UNL     1      12.973 194.295  41.711  1.00  0.00     0.012 A 
ATOM     11  C   UNL     1      12.261 192.097  41.026  1.00  0.00     0.012 A 
ATOM     12  C   UNL     1      14.311 193.892  41.629  1.00  0.00     0.047 A 
ATOM     13  C   UNL     1      13.598 191.700  40.936  1.00  0.00     0.047 A 
ATOM     14  C   UNL     1      14.627 192.588  41.250  1.00  0.00     0.119 A 
BRANCH  14  15
ATOM     15  O   UNL     1      15.887 192.072  41.127  1.00  0.00    -0.492 OA
BRANCH  15  16
ATOM     16  C   UNL     1      16.313 191.110  42.097  1.00  0.00     0.245 C 
BRANCH  16  17
ATOM     17  C   UNL     1      16.816 189.831  41.404  1.00  0.00     0.126 C 
BRANCH  17  18
ATOM     18  N   UNL     1      15.807 188.805  41.065  1.00  0.00    -0.300 NA
BRANCH  18  19
ATOM     19  C   UNL     1      16.272 187.932  39.985  1.00  0.00     0.084 C 
BRANCH  19  20
ATOM     20  C   UNL     1      15.402 186.701  39.713  1.00  0.00     0.016 C 
BRANCH  20  21
ATOM     21  C   UNL     1      14.231 186.994  38.783  1.00  0.00     0.001 C
ENDBRANCH  20  21
ENDBRANCH  19  20
ENDBRANCH  18  19
BRANCH  18  23
ATOM     23  C   UNL     1      15.321 188.105  42.259  1.00  0.00     0.084 C 
BRANCH  23  24
ATOM     24  C   UNL     1      13.821 188.302  42.471  1.00  0.00     0.016 C 
BRANCH  24  25
ATOM     25  C   UNL     1      13.437 189.267  43.588  1.00  0.00     0.001 C
ENDBRANCH  24  25
ENDBRANCH  23  24
ENDBRANCH  18  23
ENDBRANCH  17  18
ENDBRANCH  16  17
ENDBRANCH  15  16
ENDBRANCH  14  15
ENDBRANCH   2   9
BRANCH   2  27
ATOM     27  C   UNL     1       9.750 194.375  40.389  1.00  0.00    -0.018 A 
ATOM     28  C   UNL     1      10.281 195.355  39.537  1.00  0.00     0.012 A 
ATOM     29  C   UNL     1       8.446 193.922  40.156  1.00  0.00     0.012 A 
ATOM     30  C   UNL     1       9.533 195.856  38.464  1.00  0.00     0.047 A 
ATOM     31  C   UNL     1       7.701 194.425  39.086  1.00  0.00     0.047 A 
ATOM     32  C   UNL     1       8.242 195.386  38.230  1.00  0.00     0.119 A 
BRANCH  32  33
ATOM     33  O   UNL     1       7.406 195.793  37.227  1.00  0.00    -0.492 OA
BRANCH  33  34
ATOM     34  C   UNL     1       7.516 197.153  36.804  1.00  0.00     0.245 C 
BRANCH  34  35
ATOM     35  C   UNL     1       6.324 197.963  37.352  1.00  0.00     0.126 C 
BRANCH  35  36
ATOM     36  N   UNL     1       5.640 198.834  36.376  1.00  0.00    -0.300 NA
BRANCH  36  37
ATOM     37  C   UNL     1       5.670 200.248  36.755  1.00  0.00     0.084 C 
BRANCH  37  38
ATOM     38  C   UNL     1       4.590 201.143  36.132  1.00  0.00     0.016 C 
BRANCH  38  39
ATOM     39  C   UNL     1       4.939 201.812  34.794  1.00  0.00     0.001 C
ENDBRANCH  38  39
ENDBRANCH  37  38
ENDBRANCH  36  37
BRANCH  36  41
ATOM     41  C   UNL     1       4.335 198.303  35.983  1.00  0.00     0.084 C 
BRANCH  41  42
ATOM     42  C   UNL     1       4.324 197.238  34.882  1.00  0.00     0.016 C 
BRANCH  42  43
ATOM     43  C   UNL     1       2.945 196.802  34.383  1.00  0.00     0.001 C
ENDBRANCH  42  43
ENDBRANCH  41  42
ENDBRANCH  36  41
ENDBRANCH  35  36
ENDBRANCH  34  35
ENDBRANCH  33  34
ENDBRANCH  32  33
ENDBRANCH   2  27
TORSDOF 11
ENDMDL
MODEL 6
REMARK VINA RESULT:      -5.3      4.465     11.600
REMARK SMILES C(=C(c1ccc(OCCN2CCCCCC2)cc1)c1ccc(OCCN2CCCCCC2)cc1)c1ccccc1
REMARK SMILES IDX 1 1 2 2 35 3 36 4 40 5 37 6 39 7 38 8 3 9 4 10 18 11 5 12
REMARK SMILES IDX 17 13 6 14 7 15 8 16 9 17 10 18 11 19 12 20 13 21 16 23
REMARK SMILES IDX 15 24 14 25 19 27 20 28 34 29 21 30 33 31 22 32 23 33 24 34
REMARK SMILES IDX 25 35 26 36 27 37 28 38 29 39 32 41 31 42 30 43
REMARK H PARENT
REMARK Flexibility Score:   68.800
ROOT
ATOM      1  C   UNL     1       8.085 192.388  38.633  1.00  0.00     0.017 C 
ATOM      2  C   UNL     1       8.476 193.542  39.222  1.00  0.00    -0.011 C 
ENDROOT
BRANCH   1   3
ATOM      3  C   UNL     1       7.566 192.195  37.269  1.00  0.00    -0.025 A 
ATOM      4  C   UNL     1       8.325 191.462  36.350  1.00  0.00     0.008 A 
ATOM      5  C   UNL     1       6.313 192.684  36.882  1.00  0.00     0.008 A 
ATOM      6  C   UNL     1       7.852 191.245  35.053  1.00  0.00     0.001 A 
ATOM      7  C   UNL     1       5.841 192.468  35.585  1.00  0.00     0.001 A 
ATOM      8  C   UNL     1       6.611 191.750  34.672  1.00  0.00     0.000 A 
ENDBRANCH   1   3
BRANCH   2   9
ATOM      9  C   UNL     1       8.485 194.837  38.489  1.00  0.00    -0.018 A 
ATOM     10  C   UNL     1       9.655 195.257  37.843  1.00  0.00     0.012 A 
ATOM     11  C   UNL     1       7.337 195.630  38.383  1.00  0.00     0.012 A 
ATOM     12  C   UNL     1       9.681 196.450  37.111  1.00  0.00     0.047 A 
ATOM     13  C   UNL     1       7.367 196.825  37.658  1.00  0.00     0.047 A 
ATOM     14  C   UNL     1       8.532 197.233  37.007  1.00  0.00     0.119 A 
BRANCH  14  15
ATOM     15  O   UNL     1       8.426 198.416  36.330  1.00  0.00    -0.492 OA
BRANCH  15  16
ATOM     16  C   UNL     1       7.112 198.908  36.047  1.00  0.00     0.245 C 
BRANCH  16  17
ATOM     17  C   UNL     1       6.663 198.471  34.641  1.00  0.00     0.126 C 
BRANCH  17  18
ATOM     18  N   UNL     1       5.231 198.151  34.460  1.00  0.00    -0.300 NA
BRANCH  18  19
ATOM     19  C   UNL     1       4.400 199.354  34.538  1.00  0.00     0.084 C 
BRANCH  19  20
ATOM     20  C   UNL     1       3.384 199.379  35.685  1.00  0.00     0.016 C 
BRANCH  20  21
ATOM     21  C   UNL     1       2.003 198.888  35.267  1.00  0.00     0.001 C
ENDBRANCH  20  21
ENDBRANCH  19  20
ENDBRANCH  18  19
BRANCH  18  23
ATOM     23  C   UNL     1       5.005 197.321  33.272  1.00  0.00     0.084 C 
BRANCH  23  24
ATOM     24  C   UNL     1       4.670 195.875  33.636  1.00  0.00     0.016 C 
BRANCH  24  25
ATOM     25  C   UNL     1       4.832 194.860  32.509  1.00  0.00     0.001 C
ENDBRANCH  24  25
ENDBRANCH  23  24
ENDBRANCH  18  23
ENDBRANCH  17  18
ENDBRANCH  16  17
ENDBRANCH  15  16
ENDBRANCH  14  15
ENDBRANCH   2   9
BRANCH   2  27
ATOM     27  C   UNL     1       8.928 193.444  40.638  1.00  0.00    -0.018 A 
ATOM     28  C   UNL     1       8.701 192.291  41.404  1.00  0.00     0.012 A 
ATOM     29  C   UNL     1       9.557 194.538  41.246  1.00  0.00     0.012 A 
ATOM     30  C   UNL     1       9.112 192.224  42.741  1.00  0.00     0.047 A 
ATOM     31  C   UNL     1       9.965 194.468  42.581  1.00  0.00     0.047 A 
ATOM     32  C   UNL     1       9.754 193.311  43.332  1.00  0.00     0.119 A 
BRANCH  32  33
ATOM     33  O   UNL     1      10.199 193.379  44.623  1.00  0.00    -0.492 OA
BRANCH  33  34
ATOM     34  C   UNL     1      10.936 192.258  45.113  1.00  0.00     0.245 C 
BRANCH  34  35
ATOM     35  C   UNL     1      12.438 192.462  44.828  1.00  0.00     0.126 C 
BRANCH  35  36
ATOM     36  N   UNL     1      13.046 193.665  45.430  1.00  0.00    -0.300 NA
BRANCH  36  37
ATOM     37  C   UNL     1      13.889 194.408  44.492  1.00  0.00     0.084 C 
BRANCH  37  38
ATOM     38  C   UNL     1      13.230 195.597  43.780  1.00  0.00     0.016 C 
BRANCH  38  39
ATOM     39  C   UNL     1      13.506 195.738  42.275  1.00  0.00     0.001 C
ENDBRANCH  38  39
ENDBRANCH  37  38
ENDBRANCH  36  37
BRANCH  36  41
ATOM     41  C   UNL     1      13.634 193.388  46.740  1.00  0.00     0.084 C 
BRANCH  41  42
ATOM     42  C   UNL     1      12.837 193.840  47.968  1.00  0.00     0.016 C 
BRANCH  42  43
ATOM     43  C   UNL     1      11.707 194.837  47.705  1.00  0.00     0.001 C
ENDBRANCH  42  43
ENDBRANCH  41  42
ENDBRANCH  36  41
ENDBRANCH  35  36
ENDBRANCH  34  35
ENDBRANCH  33  34
ENDBRANCH  32  33
ENDBRANCH   2  27
TORSDOF 11
ENDMDL
MODEL 7
REMARK VINA RESULT:      -5.3      2.007      2.875
REMARK SMILES C(=C(c1ccc(OCCN2CCCCCC2)cc1)c1ccc(OCCN2CCCCCC2)cc1)c1ccccc1
REMARK SMILES IDX 1 1 2 2 35 3 36 4 40 5 37 6 39 7 38 8 3 9 4 10 18 11 5 12
REMARK SMILES IDX 17 13 6 14 7 15 8 16 9 17 10 18 11 19 12 20 13 21 16 23
REMARK SMILES IDX 15 24 14 25 19 27 20 28 34 29 21 30 33 31 22 32 23 33 24 34
REMARK SMILES IDX 25 35 26 36 27 37 28 38 29 39 32 41 31 42 30 43
REMARK H PARENT
REMARK Flexibility Score:   68.800
ROOT
ATOM      1  C   UNL     1      10.188 194.013  42.861  1.00  0.00     0.017 C 
ATOM      2  C   UNL     1      10.262 193.344  41.686  1.00  0.00    -0.011 C 
ENDROOT
BRANCH   1   3
ATOM      3  C   UNL     1      10.682 193.587  44.181  1.00  0.00    -0.025 A 
ATOM      4  C   UNL     1      11.266 194.537  45.027  1.00  0.00     0.008 A 
ATOM      5  C   UNL     1      10.539 192.269  44.630  1.00  0.00     0.008 A 
ATOM      6  C   UNL     1      11.727 194.169  46.294  1.00  0.00     0.001 A 
ATOM      7  C   UNL     1      11.003 191.901  45.897  1.00  0.00     0.001 A 
ATOM      8  C   UNL     1      11.597 192.851  46.726  1.00  0.00     0.000 A 
ENDBRANCH   1   3
BRANCH   2   9
ATOM      9  C   UNL     1      10.954 192.032  41.568  1.00  0.00    -0.018 A 
ATOM     10  C   UNL     1      10.197 190.861  41.431  1.00  0.00     0.012 A 
ATOM     11  C   UNL     1      12.350 191.938  41.539  1.00  0.00     0.012 A 
ATOM     12  C   UNL     1      10.821 189.618  41.275  1.00  0.00     0.047 A 
ATOM     13  C   UNL     1      12.971 190.695  41.392  1.00  0.00     0.047 A 
ATOM     14  C   UNL     1      12.213 189.532  41.245  1.00  0.00     0.119 A 
BRANCH  14  15
ATOM     15  O   UNL     1      12.942 188.385  41.104  1.00  0.00    -0.492 OA
BRANCH  15  16
ATOM     16  C   UNL     1      13.923 188.342  40.063  1.00  0.00     0.245 C 
BRANCH  16  17
ATOM     17  C   UNL     1      14.481 186.916  39.906  1.00  0.00     0.126 C 
BRANCH  17  18
ATOM     18  N   UNL     1      15.368 186.662  38.751  1.00  0.00    -0.300 NA
BRANCH  18  19
ATOM     19  C   UNL     1      16.086 187.875  38.351  1.00  0.00     0.084 C 
BRANCH  19  20
ATOM     20  C   UNL     1      17.614 187.790  38.426  1.00  0.00     0.016 C 
BRANCH  20  21
ATOM     21  C   UNL     1      18.273 189.137  38.695  1.00  0.00     0.001 C
ENDBRANCH  20  21
ENDBRANCH  19  20
ENDBRANCH  18  19
BRANCH  18  23
ATOM     23  C   UNL     1      16.217 185.485  38.964  1.00  0.00     0.084 C 
BRANCH  23  24
ATOM     24  C   UNL     1      16.115 184.954  40.392  1.00  0.00     0.016 C 
BRANCH  24  25
ATOM     25  C   UNL     1      17.437 184.826  41.142  1.00  0.00     0.001 C
ENDBRANCH  24  25
ENDBRANCH  23  24
ENDBRANCH  18  23
ENDBRANCH  17  18
ENDBRANCH  16  17
ENDBRANCH  15  16
ENDBRANCH  14  15
ENDBRANCH   2   9
BRANCH   2  27
ATOM     27  C   UNL     1       9.639 194.007  40.506  1.00  0.00    -0.018 A 
ATOM     28  C   UNL     1      10.345 194.937  39.729  1.00  0.00     0.012 A 
ATOM     29  C   UNL     1       8.305 193.737  40.179  1.00  0.00     0.012 A 
ATOM     30  C   UNL     1       9.737 195.568  38.635  1.00  0.00     0.047 A 
ATOM     31  C   UNL     1       7.701 194.369  39.089  1.00  0.00     0.047 A 
ATOM     32  C   UNL     1       8.414 195.280  38.307  1.00  0.00     0.119 A 
BRANCH  32  33
ATOM     33  O   UNL     1       7.703 195.826  37.275  1.00  0.00    -0.492 OA
BRANCH  33  34
ATOM     34  C   UNL     1       7.124 197.113  37.497  1.00  0.00     0.245 C 
BRANCH  34  35
ATOM     35  C   UNL     1       7.397 198.019  36.280  1.00  0.00     0.126 C 
BRANCH  35  36
ATOM     36  N   UNL     1       8.685 198.742  36.297  1.00  0.00    -0.300 NA
BRANCH  36  37
ATOM     37  C   UNL     1       9.697 198.123  35.439  1.00  0.00     0.084 C 
BRANCH  37  38
ATOM     38  C   UNL     1      10.528 199.076  34.569  1.00  0.00     0.016 C 
BRANCH  38  39
ATOM     39  C   UNL     1      11.906 199.479  35.114  1.00  0.00     0.001 C
ENDBRANCH  38  39
ENDBRANCH  37  38
ENDBRANCH  36  37
BRANCH  36  41
ATOM     41  C   UNL     1       9.112 199.075  37.656  1.00  0.00     0.084 C 
BRANCH  41  42
ATOM     42  C   UNL     1       8.958 200.536  38.091  1.00  0.00     0.016 C 
BRANCH  42  43
ATOM     43  C   UNL     1       8.851 201.565  36.965  1.00  0.00     0.001 C
ENDBRANCH  42  43
ENDBRANCH  41  42
ENDBRANCH  36  41
ENDBRANCH  35  36
ENDBRANCH  34  35
ENDBRANCH  33  34
ENDBRANCH  32  33
ENDBRANCH   2  27
TORSDOF 11
ENDMDL
MODEL 8
REMARK VINA RESULT:      -5.2      1.318      2.198
REMARK SMILES C(=C(c1ccc(OCCN2CCCCCC2)cc1)c1ccc(OCCN2CCCCCC2)cc1)c1ccccc1
REMARK SMILES IDX 1 1 2 2 35 3 36 4 40 5 37 6 39 7 38 8 3 9 4 10 18 11 5 12
REMARK SMILES IDX 17 13 6 14 7 15 8 16 9 17 10 18 11 19 12 20 13 21 16 23
REMARK SMILES IDX 15 24 14 25 19 27 20 28 34 29 21 30 33 31 22 32 23 33 24 34
REMARK SMILES IDX 25 35 26 36 27 37 28 38 29 39 32 41 31 42 30 43
REMARK H PARENT
REMARK Flexibility Score:   68.800
ROOT
ATOM      1  C   UNL     1       9.978 193.825  42.962  1.00  0.00     0.017 C 
ATOM      2  C   UNL     1      10.589 193.748  41.756  1.00  0.00    -0.011 C 
ENDROOT
BRANCH   1   3
ATOM      3  C   UNL     1      10.478 193.353  44.264  1.00  0.00    -0.025 A 
ATOM      4  C   UNL     1      10.647 191.979  44.470  1.00  0.00     0.008 A 
ATOM      5  C   UNL     1      10.831 194.244  45.284  1.00  0.00     0.008 A 
ATOM      6  C   UNL     1      11.137 191.500  45.688  1.00  0.00     0.001 A 
ATOM      7  C   UNL     1      11.319 193.764  46.503  1.00  0.00     0.001 A 
ATOM      8  C   UNL     1      11.470 192.394  46.703  1.00  0.00     0.000 A 
ENDBRANCH   1   3
BRANCH   2   9
ATOM      9  C   UNL     1      11.961 193.194  41.601  1.00  0.00    -0.018 A 
ATOM     10  C   UNL     1      12.129 191.888  41.123  1.00  0.00     0.012 A 
ATOM     11  C   UNL     1      13.099 193.963  41.872  1.00  0.00     0.012 A 
ATOM     12  C   UNL     1      13.408 191.356  40.927  1.00  0.00     0.047 A 
ATOM     13  C   UNL     1      14.375 193.426  41.684  1.00  0.00     0.047 A 
ATOM     14  C   UNL     1      14.538 192.128  41.197  1.00  0.00     0.119 A 
BRANCH  14  15
ATOM     15  O   UNL     1      15.836 191.727  41.053  1.00  0.00    -0.492 OA
BRANCH  15  16
ATOM     16  C   UNL     1      16.491 191.164  42.194  1.00  0.00     0.245 C 
BRANCH  16  17
ATOM     17  C   UNL     1      16.769 189.667  41.973  1.00  0.00     0.126 C 
BRANCH  17  18
ATOM     18  N   UNL     1      15.687 188.721  42.324  1.00  0.00    -0.300 NA
BRANCH  18  19
ATOM     19  C   UNL     1      15.512 187.700  41.288  1.00  0.00     0.084 C 
BRANCH  19  20
ATOM     20  C   UNL     1      15.171 188.230  39.892  1.00  0.00     0.016 C 
BRANCH  20  21
ATOM     21  C   UNL     1      14.016 187.483  39.237  1.00  0.00     0.001 C
ENDBRANCH  20  21
ENDBRANCH  19  20
ENDBRANCH  18  19
BRANCH  18  23
ATOM     23  C   UNL     1      15.841 188.199  43.685  1.00  0.00     0.084 C 
BRANCH  23  24
ATOM     24  C   UNL     1      14.653 188.557  44.576  1.00  0.00     0.016 C 
BRANCH  24  25
ATOM     25  C   UNL     1      13.532 189.334  43.895  1.00  0.00     0.001 C
ENDBRANCH  24  25
ENDBRANCH  23  24
ENDBRANCH  18  23
ENDBRANCH  17  18
ENDBRANCH  16  17
ENDBRANCH  15  16
ENDBRANCH  14  15
ENDBRANCH   2   9
BRANCH   2  27
ATOM     27  C   UNL     1       9.825 194.278  40.592  1.00  0.00    -0.018 A 
ATOM     28  C   UNL     1      10.387 195.212  39.708  1.00  0.00     0.012 A 
ATOM     29  C   UNL     1       8.499 193.878  40.387  1.00  0.00     0.012 A 
ATOM     30  C   UNL     1       9.648 195.718  38.631  1.00  0.00     0.047 A 
ATOM     31  C   UNL     1       7.763 194.386  39.313  1.00  0.00     0.047 A 
ATOM     32  C   UNL     1       8.334 195.299  38.426  1.00  0.00     0.119 A 
BRANCH  32  33
ATOM     33  O   UNL     1       7.504 195.716  37.423  1.00  0.00    -0.492 OA
BRANCH  33  34
ATOM     34  C   UNL     1       7.033 197.063  37.490  1.00  0.00     0.245 C 
BRANCH  34  35
ATOM     35  C   UNL     1       6.701 197.566  36.070  1.00  0.00     0.126 C 
BRANCH  35  36
ATOM     36  N   UNL     1       5.292 197.944  35.839  1.00  0.00    -0.300 NA
BRANCH  36  37
ATOM     37  C   UNL     1       4.783 197.481  34.547  1.00  0.00     0.084 C 
BRANCH  37  38
ATOM     38  C   UNL     1       4.677 195.961  34.362  1.00  0.00     0.016 C 
BRANCH  38  39
ATOM     39  C   UNL     1       3.983 195.470  33.083  1.00  0.00     0.001 C
ENDBRANCH  38  39
ENDBRANCH  37  38
ENDBRANCH  36  37
BRANCH  36  41
ATOM     41  C   UNL     1       5.037 199.347  36.164  1.00  0.00     0.084 C 
BRANCH  41  42
ATOM     42  C   UNL     1       6.148 200.348  35.830  1.00  0.00     0.016 C 
BRANCH  42  43
ATOM     43  C   UNL     1       6.096 200.967  34.432  1.00  0.00     0.001 C
ENDBRANCH  42  43
ENDBRANCH  41  42
ENDBRANCH  36  41
ENDBRANCH  35  36
ENDBRANCH  34  35
ENDBRANCH  33  34
ENDBRANCH  32  33
ENDBRANCH   2  27
TORSDOF 11
ENDMDL
MODEL 9
REMARK VINA RESULT:      -5.2      1.380      2.514
REMARK SMILES C(=C(c1ccc(OCCN2CCCCCC2)cc1)c1ccc(OCCN2CCCCCC2)cc1)c1ccccc1
REMARK SMILES IDX 1 1 2 2 35 3 36 4 40 5 37 6 39 7 38 8 3 9 4 10 18 11 5 12
REMARK SMILES IDX 17 13 6 14 7 15 8 16 9 17 10 18 11 19 12 20 13 21 16 23
REMARK SMILES IDX 15 24 14 25 19 27 20 28 34 29 21 30 33 31 22 32 23 33 24 34
REMARK SMILES IDX 25 35 26 36 27 37 28 38 29 39 32 41 31 42 30 43
REMARK H PARENT
REMARK Flexibility Score:   68.800
ROOT
ATOM      1  C   UNL     1       9.964 193.381  43.092  1.00  0.00     0.017 C 
ATOM      2  C   UNL     1      10.084 192.827  41.862  1.00  0.00    -0.011 C 
ENDROOT
BRANCH   1   3
ATOM      3  C   UNL     1      10.559 192.921  44.357  1.00  0.00    -0.025 A 
ATOM      4  C   UNL     1      11.026 193.870  45.274  1.00  0.00     0.008 A 
ATOM      5  C   UNL     1      10.627 191.563  44.688  1.00  0.00     0.008 A 
ATOM      6  C   UNL     1      11.578 193.467  46.492  1.00  0.00     0.001 A 
ATOM      7  C   UNL     1      11.182 191.159  45.905  1.00  0.00     0.001 A 
ATOM      8  C   UNL     1      11.658 192.111  46.805  1.00  0.00     0.000 A 
ENDBRANCH   1   3
BRANCH   2   9
ATOM      9  C   UNL     1      10.941 191.637  41.614  1.00  0.00    -0.018 A 
ATOM     10  C   UNL     1      10.348 190.376  41.464  1.00  0.00     0.012 A 
ATOM     11  C   UNL     1      12.330 191.747  41.476  1.00  0.00     0.012 A 
ATOM     12  C   UNL     1      11.126 189.246  41.187  1.00  0.00     0.047 A 
ATOM     13  C   UNL     1      13.105 190.616  41.208  1.00  0.00     0.047 A 
ATOM     14  C   UNL     1      12.508 189.364  41.048  1.00  0.00     0.119 A 
BRANCH  14  15
ATOM     15  O   UNL     1      13.377 188.343  40.784  1.00  0.00    -0.492 OA
BRANCH  15  16
ATOM     16  C   UNL     1      14.696 188.686  40.345  1.00  0.00     0.245 C 
BRANCH  16  17
ATOM     17  C   UNL     1      15.131 187.775  39.183  1.00  0.00     0.126 C 
BRANCH  17  18
ATOM     18  N   UNL     1      16.256 186.850  39.436  1.00  0.00    -0.300 NA
BRANCH  18  19
ATOM     19  C   UNL     1      17.370 187.097  38.517  1.00  0.00     0.084 C 
BRANCH  19  20
ATOM     20  C   UNL     1      17.592 188.564  38.133  1.00  0.00     0.016 C 
BRANCH  20  21
ATOM     21  C   UNL     1      18.681 189.236  38.960  1.00  0.00     0.001 C
ENDBRANCH  20  21
ENDBRANCH  19  20
ENDBRANCH  18  19
BRANCH  18  23
ATOM     23  C   UNL     1      16.623 186.815  40.856  1.00  0.00     0.084 C 
BRANCH  23  24
ATOM     24  C   UNL     1      16.502 185.412  41.447  1.00  0.00     0.016 C 
BRANCH  24  25
ATOM     25  C   UNL     1      15.094 184.825  41.462  1.00  0.00     0.001 C
ENDBRANCH  24  25
ENDBRANCH  23  24
ENDBRANCH  18  23
ENDBRANCH  17  18
ENDBRANCH  16  17
ENDBRANCH  15  16
ENDBRANCH  14  15
ENDBRANCH   2   9
BRANCH   2  27
ATOM     27  C   UNL     1       9.334 193.492  40.760  1.00  0.00    -0.018 A 
ATOM     28  C   UNL     1       8.130 192.967  40.269  1.00  0.00     0.012 A 
ATOM     29  C   UNL     1       9.856 194.645  40.159  1.00  0.00     0.012 A 
ATOM     30  C   UNL     1       7.449 193.593  39.216  1.00  0.00     0.047 A 
ATOM     31  C   UNL     1       9.176 195.265  39.108  1.00  0.00     0.047 A 
ATOM     32  C   UNL     1       7.967 194.749  38.637  1.00  0.00     0.119 A 
BRANCH  32  33
ATOM     33  O   UNL     1       7.410 195.452  37.605  1.00  0.00    -0.492 OA
BRANCH  33  34
ATOM     34  C   UNL     1       7.767 196.831  37.493  1.00  0.00     0.245 C 
BRANCH  34  35
ATOM     35  C   UNL     1       6.519 197.707  37.725  1.00  0.00     0.126 C 
BRANCH  35  36
ATOM     36  N   UNL     1       6.411 198.905  36.868  1.00  0.00    -0.300 NA
BRANCH  36  37
ATOM     37  C   UNL     1       6.071 200.115  37.620  1.00  0.00     0.084 C 
BRANCH  37  38
ATOM     38  C   UNL     1       6.930 201.355  37.339  1.00  0.00     0.016 C 
BRANCH  38  39
ATOM     39  C   UNL     1       6.486 202.666  38.006  1.00  0.00     0.001 C
ENDBRANCH  38  39
ENDBRANCH  37  38
ENDBRANCH  36  37
BRANCH  36  41
ATOM     41  C   UNL     1       5.618 198.654  35.666  1.00  0.00     0.084 C 
BRANCH  41  42
ATOM     42  C   UNL     1       4.194 199.220  35.643  1.00  0.00     0.016 C 
BRANCH  42  43
ATOM     43  C   UNL     1       4.021 200.574  34.953  1.00  0.00     0.001 C
ENDBRANCH  42  43
ENDBRANCH  41  42
ENDBRANCH  36  41
ENDBRANCH  35  36
ENDBRANCH  34  35
ENDBRANCH  33  34
ENDBRANCH  32  33
ENDBRANCH   2  27
TORSDOF 11
ENDMDL
MODEL 10
REMARK VINA RESULT:      -5.2      1.824      2.954
REMARK SMILES C(=C(c1ccc(OCCN2CCCCCC2)cc1)c1ccc(OCCN2CCCCCC2)cc1)c1ccccc1
REMARK SMILES IDX 1 1 2 2 35 3 36 4 40 5 37 6 39 7 38 8 3 9 4 10 18 11 5 12
REMARK SMILES IDX 17 13 6 14 7 15 8 16 9 17 10 18 11 19 12 20 13 21 16 23
REMARK SMILES IDX 15 24 14 25 19 27 20 28 34 29 21 30 33 31 22 32 23 33 24 34
REMARK SMILES IDX 25 35 26 36 27 37 28 38 29 39 32 41 31 42 30 43
REMARK H PARENT
REMARK Flexibility Score:   68.800
ROOT
ATOM      1  C   UNL     1      10.232 193.003  44.105  1.00  0.00     0.017 C 
ATOM      2  C   UNL     1      10.461 192.545  42.852  1.00  0.00    -0.011 C 
ENDROOT
BRANCH   1   3
ATOM      3  C   UNL     1      10.900 192.602  45.354  1.00  0.00    -0.025 A 
ATOM      4  C   UNL     1      11.402 193.594  46.205  1.00  0.00     0.008 A 
ATOM      5  C   UNL     1      11.004 191.260  45.736  1.00  0.00     0.008 A 
ATOM      6  C   UNL     1      12.024 193.248  47.407  1.00  0.00     0.001 A 
ATOM      7  C   UNL     1      11.628 190.914  46.938  1.00  0.00     0.001 A 
ATOM      8  C   UNL     1      12.139 191.908  47.771  1.00  0.00     0.000 A 
ENDBRANCH   1   3
BRANCH   2   9
ATOM      9  C   UNL     1      11.534 191.557  42.557  1.00  0.00    -0.018 A 
ATOM     10  C   UNL     1      12.877 191.937  42.678  1.00  0.00     0.012 A 
ATOM     11  C   UNL     1      11.239 190.233  42.210  1.00  0.00     0.012 A 
ATOM     12  C   UNL     1      13.906 191.017  42.449  1.00  0.00     0.047 A 
ATOM     13  C   UNL     1      12.269 189.318  41.974  1.00  0.00     0.047 A 
ATOM     14  C   UNL     1      13.605 189.700  42.106  1.00  0.00     0.119 A 
BRANCH  14  15
ATOM     15  O   UNL     1      14.512 188.709  41.853  1.00  0.00    -0.492 OA
BRANCH  15  16
ATOM     16  C   UNL     1      14.104 187.632  41.004  1.00  0.00     0.245 C 
BRANCH  16  17
ATOM     17  C   UNL     1      14.997 186.399  41.230  1.00  0.00     0.126 C 
BRANCH  17  18
ATOM     18  N   UNL     1      16.415 186.511  40.828  1.00  0.00    -0.300 NA
BRANCH  18  19
ATOM     19  C   UNL     1      17.312 186.291  41.965  1.00  0.00     0.084 C 
BRANCH  19  20
ATOM     20  C   UNL     1      18.210 187.476  42.334  1.00  0.00     0.016 C 
BRANCH  20  21
ATOM     21  C   UNL     1      17.907 188.728  41.519  1.00  0.00     0.001 C
ENDBRANCH  20  21
ENDBRANCH  19  20
ENDBRANCH  18  19
BRANCH  18  23
ATOM     23  C   UNL     1      16.711 185.699  39.643  1.00  0.00     0.084 C 
BRANCH  23  24
ATOM     24  C   UNL     1      17.235 186.545  38.483  1.00  0.00     0.016 C 
BRANCH  24  25
ATOM     25  C   UNL     1      16.606 187.927  38.342  1.00  0.00     0.001 C
ENDBRANCH  24  25
ENDBRANCH  23  24
ENDBRANCH  18  23
ENDBRANCH  17  18
ENDBRANCH  16  17
ENDBRANCH  15  16
ENDBRANCH  14  15
ENDBRANCH   2   9
BRANCH   2  27
ATOM     27  C   UNL     1       9.602 193.107  41.773  1.00  0.00    -0.018 A 
ATOM     28  C   UNL     1       8.351 192.553  41.465  1.00  0.00     0.012 A 
ATOM     29  C   UNL     1      10.060 194.189  41.009  1.00  0.00     0.012 A 
ATOM     30  C   UNL     1       7.565 193.080  40.432  1.00  0.00     0.047 A 
ATOM     31  C   UNL     1       9.275 194.711  39.978  1.00  0.00     0.047 A 
ATOM     32  C   UNL     1       8.022 194.167  39.690  1.00  0.00     0.119 A 
BRANCH  32  33
ATOM     33  O   UNL     1       7.362 194.772  38.657  1.00  0.00    -0.492 OA
BRANCH  33  34
ATOM     34  C   UNL     1       8.160 195.456  37.689  1.00  0.00     0.245 C 
BRANCH  34  35
ATOM     35  C   UNL     1       7.410 196.708  37.191  1.00  0.00     0.126 C 
BRANCH  35  36
ATOM     36  N   UNL     1       8.249 197.895  36.933  1.00  0.00    -0.300 NA
BRANCH  36  37
ATOM     37  C   UNL     1       7.727 198.737  35.854  1.00  0.00     0.084 C 
BRANCH  37  38
ATOM     38  C   UNL     1       6.582 198.144  35.021  1.00  0.00     0.016 C 
BRANCH  38  39
ATOM     39  C   UNL     1       5.677 199.144  34.286  1.00  0.00     0.001 C
ENDBRANCH  38  39
ENDBRANCH  37  38
ENDBRANCH  36  37
BRANCH  36  41
ATOM     41  C   UNL     1       9.670 197.559  36.854  1.00  0.00     0.084 C 
BRANCH  41  42
ATOM     42  C   UNL     1      10.562 198.506  36.045  1.00  0.00     0.016 C 
BRANCH  42  43
ATOM     43  C   UNL     1      11.528 197.843  35.062  1.00  0.00     0.001 C
ENDBRANCH  42  43
ENDBRANCH  41  42
ENDBRANCH  36  41
ENDBRANCH  35  36
ENDBRANCH  34  35
ENDBRANCH  33  34
ENDBRANCH  32  33
ENDBRANCH   2  27
TORSDOF 11
ENDMDL
