MODEL 1
REMARK VINA RESULT:      -6.5      0.000      0.000
REMARK SMILES C=CCN1CCN(c2ccn(CC(=O)N[C@@H](CC(C)C)B(O)O)c(=O)c2)CC1
REMARK SMILES IDX 13 1 14 2 15 3 12 5 11 6 8 7 9 8 26 9 10 10 24 11 25 12 7 13
REMARK SMILES IDX 4 14 5 15 28 16 6 17 27 18 3 19 2 20 1 21 16 22 17 23 18 24
REMARK SMILES IDX 19 25 20 26 21 27 22 28 23 30
REMARK H PARENT 15 4 22 29 23 31
ROOT
ATOM      1  C   UNL     1      14.519 188.551  41.350  1.00  0.00     0.239 C 
ATOM      2  O   UNL     1      15.006 189.662  41.024  1.00  0.00    -0.273 OA
ATOM      3  N   UNL     1      15.120 187.382  40.814  1.00  0.00    -0.353 N 
ATOM      4  H   UNL     1      14.773 186.404  41.034  1.00  0.00     0.163 HD
ENDROOT
BRANCH   1   5
ATOM      5  C   UNL     1      13.368 188.413  42.250  1.00  0.00     0.225 C 
BRANCH   5   6
ATOM      6  N   UNL     1      12.354 189.401  42.058  1.00  0.00    -0.306 N 
ATOM      7  C   UNL     1      10.339 191.343  41.648  1.00  0.00     0.044 A 
ATOM      8  C   UNL     1      10.464 190.246  40.824  1.00  0.00     0.044 A 
ATOM      9  C   UNL     1      11.275 191.417  42.688  1.00  0.00     0.097 A 
ATOM     10  C   UNL     1      11.480 189.310  41.068  1.00  0.00     0.092 A 
ATOM     11  C   UNL     1      12.251 190.465  42.876  1.00  0.00     0.253 A 
ATOM     12  O   UNL     1      13.073 190.587  43.838  1.00  0.00    -0.269 OA
BRANCH   7  13
ATOM     13  N   UNL     1       9.352 192.335  41.491  1.00  0.00    -0.369 N 
ATOM     14  N   UNL     1       7.283 193.247  40.013  1.00  0.00    -0.296 NA
ATOM     15  C   UNL     1       8.309 194.190  40.460  1.00  0.00     0.106 C 
ATOM     16  C   UNL     1       6.989 192.302  41.086  1.00  0.00     0.106 C 
ATOM     17  C   UNL     1       9.614 193.489  40.637  1.00  0.00     0.132 C 
ATOM     18  C   UNL     1       8.091 192.272  42.144  1.00  0.00     0.132 C 
BRANCH  14  19
ATOM     19  C   UNL     1       7.790 192.477  38.892  1.00  0.00     0.111 C 
BRANCH  19  20
ATOM     20  C   UNL     1       6.802 192.458  37.808  1.00  0.00    -0.019 C 
ATOM     21  C   UNL     1       7.005 191.935  36.623  1.00  0.00     0.005 C 
ENDBRANCH  19  20
ENDBRANCH  14  19
ENDBRANCH   7  13
ENDBRANCH   5   6
ENDBRANCH   1   5
BRANCH   3  22
ATOM     22  C   UNL     1      16.246 187.470  39.935  1.00  0.00     0.114 C 
BRANCH  22  23
ATOM     23  C   UNL     1      16.947 186.157  39.716  1.00  0.00     0.025 C 
BRANCH  23  24
ATOM     24  C   UNL     1      18.439 186.273  39.742  1.00  0.00    -0.016 C 
ATOM     25  C   UNL     1      19.095 186.495  38.425  1.00  0.00     0.007 C 
ATOM     26  C   UNL     1      18.910 187.366  40.685  1.00  0.00     0.007 C 
ENDBRANCH  23  24
ENDBRANCH  22  23
BRANCH  22  27
ATOM     27  B   UNL     1      15.637 187.910  38.514  1.00  0.00     0.475 C 
BRANCH  27  28
ATOM     28  O   UNL     1      14.367 187.268  38.155  1.00  0.00    -0.426 OA
ATOM     29  H   UNL     1      13.993 186.779  38.941  1.00  0.00     0.189 HD
ENDBRANCH  27  28
BRANCH  27  30
ATOM     30  O   UNL     1      15.871 189.240  37.971  1.00  0.00    -0.426 OA
ATOM     31  H   UNL     1      16.817 189.504  37.995  1.00  0.00     0.189 HD
ENDBRANCH  27  30
ENDBRANCH  22  27
ENDBRANCH   3  22
TORSDOF 11
ENDMDL
MODEL 2
REMARK VINA RESULT:      -6.4      2.956      8.666
REMARK SMILES C=CCN1CCN(c2ccn(CC(=O)N[C@@H](CC(C)C)B(O)O)c(=O)c2)CC1
REMARK SMILES IDX 13 1 14 2 15 3 12 5 11 6 8 7 9 8 26 9 10 10 24 11 25 12 7 13
REMARK SMILES IDX 4 14 5 15 28 16 6 17 27 18 3 19 2 20 1 21 16 22 17 23 18 24
REMARK SMILES IDX 19 25 20 26 21 27 22 28 23 30
REMARK H PARENT 15 4 22 29 23 31
ROOT
ATOM      1  C   UNL     1       8.532 192.325  40.473  1.00  0.00     0.239 C 
ATOM      2  O   UNL     1       7.429 191.811  40.784  1.00  0.00    -0.273 OA
ATOM      3  N   UNL     1       8.670 192.853  39.163  1.00  0.00    -0.353 N 
ATOM      4  H   UNL     1       9.565 193.303  38.814  1.00  0.00     0.163 HD
ENDROOT
BRANCH   1   5
ATOM      5  C   UNL     1       9.670 192.401  41.395  1.00  0.00     0.225 C 
BRANCH   5   6
ATOM      6  N   UNL     1      10.602 191.327  41.264  1.00  0.00    -0.306 N 
ATOM      7  C   UNL     1      12.422 189.176  41.005  1.00  0.00     0.044 A 
ATOM      8  C   UNL     1      11.060 188.986  40.915  1.00  0.00     0.044 A 
ATOM      9  C   UNL     1      12.825 190.498  41.231  1.00  0.00     0.097 A 
ATOM     10  C   UNL     1      10.198 190.085  41.051  1.00  0.00     0.092 A 
ATOM     11  C   UNL     1      11.929 191.536  41.355  1.00  0.00     0.253 A 
ATOM     12  O   UNL     1      12.355 192.715  41.560  1.00  0.00    -0.269 OA
BRANCH   7  13
ATOM     13  N   UNL     1      13.369 188.142  40.879  1.00  0.00    -0.369 N 
ATOM     14  N   UNL     1      15.905 187.470  40.234  1.00  0.00    -0.296 NA
ATOM     15  C   UNL     1      14.800 186.664  39.713  1.00  0.00     0.106 C 
ATOM     16  C   UNL     1      15.629 187.838  41.619  1.00  0.00     0.106 C 
ATOM     17  C   UNL     1      13.568 187.495  39.586  1.00  0.00     0.132 C 
ATOM     18  C   UNL     1      14.151 187.681  41.973  1.00  0.00     0.132 C 
BRANCH  14  19
ATOM     19  C   UNL     1      16.001 188.705  39.475  1.00  0.00     0.111 C 
BRANCH  19  20
ATOM     20  C   UNL     1      16.939 188.536  38.361  1.00  0.00    -0.019 C 
ATOM     21  C   UNL     1      18.210 188.858  38.400  1.00  0.00     0.005 C 
ENDBRANCH  19  20
ENDBRANCH  14  19
ENDBRANCH   7  13
ENDBRANCH   5   6
ENDBRANCH   1   5
BRANCH   3  22
ATOM     22  C   UNL     1       7.584 192.804  38.231  1.00  0.00     0.114 C 
BRANCH  22  23
ATOM     23  C   UNL     1       7.416 194.066  37.430  1.00  0.00     0.025 C 
BRANCH  23  24
ATOM     24  C   UNL     1       8.053 195.260  38.069  1.00  0.00    -0.016 C 
ATOM     25  C   UNL     1       9.459 195.536  37.667  1.00  0.00     0.007 C 
ATOM     26  C   UNL     1       7.248 196.527  37.839  1.00  0.00     0.007 C 
ENDBRANCH  23  24
ENDBRANCH  22  23
BRANCH  22  27
ATOM     27  B   UNL     1       7.978 191.646  37.188  1.00  0.00     0.475 C 
BRANCH  27  28
ATOM     28  O   UNL     1       9.019 190.719  37.650  1.00  0.00    -0.426 OA
ATOM     29  H   UNL     1       9.061 190.717  38.647  1.00  0.00     0.189 HD
ENDBRANCH  27  28
BRANCH  27  30
ATOM     30  O   UNL     1       7.005 191.115  36.245  1.00  0.00    -0.426 OA
ATOM     31  H   UNL     1       7.311 190.298  35.795  1.00  0.00     0.189 HD
ENDBRANCH  27  30
ENDBRANCH  22  27
ENDBRANCH   3  22
TORSDOF 11
ENDMDL
MODEL 3
REMARK VINA RESULT:      -6.4      2.823      8.701
REMARK SMILES C=CCN1CCN(c2ccn(CC(=O)N[C@@H](CC(C)C)B(O)O)c(=O)c2)CC1
REMARK SMILES IDX 13 1 14 2 15 3 12 5 11 6 8 7 9 8 26 9 10 10 24 11 25 12 7 13
REMARK SMILES IDX 4 14 5 15 28 16 6 17 27 18 3 19 2 20 1 21 16 22 17 23 18 24
REMARK SMILES IDX 19 25 20 26 21 27 22 28 23 30
REMARK H PARENT 15 4 22 29 23 31
ROOT
ATOM      1  C   UNL     1       9.865 193.925  41.777  1.00  0.00     0.239 C 
ATOM      2  O   UNL     1       9.125 194.902  42.055  1.00  0.00    -0.273 OA
ATOM      3  N   UNL     1       9.363 192.951  40.874  1.00  0.00    -0.353 N 
ATOM      4  H   UNL     1       9.917 192.094  40.586  1.00  0.00     0.163 HD
ENDROOT
BRANCH   1   5
ATOM      5  C   UNL     1      11.209 193.751  42.339  1.00  0.00     0.225 C 
BRANCH   5   6
ATOM      6  N   UNL     1      11.776 192.460  42.109  1.00  0.00    -0.306 N 
ATOM      7  C   UNL     1      12.917 189.917  41.626  1.00  0.00     0.044 A 
ATOM      8  C   UNL     1      13.370 191.047  40.981  1.00  0.00     0.044 A 
ATOM      9  C   UNL     1      11.864 190.127  42.526  1.00  0.00     0.097 A 
ATOM     10  C   UNL     1      12.771 192.287  41.253  1.00  0.00     0.092 A 
ATOM     11  C   UNL     1      11.318 191.370  42.751  1.00  0.00     0.253 A 
ATOM     12  O   UNL     1      10.363 191.498  43.580  1.00  0.00    -0.269 OA
BRANCH   7  13
ATOM     13  N   UNL     1      13.452 188.630  41.426  1.00  0.00    -0.369 N 
ATOM     14  N   UNL     1      15.607 187.169  40.708  1.00  0.00    -0.296 NA
ATOM     15  C   UNL     1      14.297 186.824  40.155  1.00  0.00     0.106 C 
ATOM     16  C   UNL     1      15.464 187.525  42.116  1.00  0.00     0.106 C 
ATOM     17  C   UNL     1      13.426 188.034  40.095  1.00  0.00     0.132 C 
ATOM     18  C   UNL     1      14.020 187.864  42.480  1.00  0.00     0.132 C 
BRANCH  14  19
ATOM     19  C   UNL     1      16.128 188.338  40.022  1.00  0.00     0.111 C 
BRANCH  19  20
ATOM     20  C   UNL     1      17.006 187.925  38.923  1.00  0.00    -0.019 C 
ATOM     21  C   UNL     1      17.803 188.729  38.261  1.00  0.00     0.005 C 
ENDBRANCH  19  20
ENDBRANCH  14  19
ENDBRANCH   7  13
ENDBRANCH   5   6
ENDBRANCH   1   5
BRANCH   3  22
ATOM     22  C   UNL     1       8.059 193.082  40.300  1.00  0.00     0.114 C 
BRANCH  22  23
ATOM     23  C   UNL     1       7.945 192.499  38.918  1.00  0.00     0.025 C 
BRANCH  23  24
ATOM     24  C   UNL     1       7.102 193.324  37.996  1.00  0.00    -0.016 C 
ATOM     25  C   UNL     1       7.736 194.565  37.475  1.00  0.00     0.007 C 
ATOM     26  C   UNL     1       6.606 192.522  36.805  1.00  0.00     0.007 C 
ENDBRANCH  23  24
ENDBRANCH  22  23
BRANCH  22  27
ATOM     27  B   UNL     1       7.092 192.215  41.247  1.00  0.00     0.475 C 
BRANCH  27  28
ATOM     28  O   UNL     1       7.779 191.370  42.231  1.00  0.00    -0.426 OA
ATOM     29  H   UNL     1       8.752 191.594  42.259  1.00  0.00     0.189 HD
ENDBRANCH  27  28
BRANCH  27  30
ATOM     30  O   UNL     1       5.765 192.689  41.609  1.00  0.00    -0.426 OA
ATOM     31  H   UNL     1       5.728 193.076  42.510  1.00  0.00     0.189 HD
ENDBRANCH  27  30
ENDBRANCH  22  27
ENDBRANCH   3  22
TORSDOF 11
ENDMDL
MODEL 4
REMARK VINA RESULT:      -6.3      2.580      8.872
REMARK SMILES C=CCN1CCN(c2ccn(CC(=O)N[C@@H](CC(C)C)B(O)O)c(=O)c2)CC1
REMARK SMILES IDX 13 1 14 2 15 3 12 5 11 6 8 7 9 8 26 9 10 10 24 11 25 12 7 13
REMARK SMILES IDX 4 14 5 15 28 16 6 17 27 18 3 19 2 20 1 21 16 22 17 23 18 24
REMARK SMILES IDX 19 25 20 26 21 27 22 28 23 30
REMARK H PARENT 15 4 22 29 23 31
ROOT
ATOM      1  C   UNL     1       9.785 191.996  40.908  1.00  0.00     0.239 C 
ATOM      2  O   UNL     1      10.685 192.787  40.531  1.00  0.00    -0.273 OA
ATOM      3  N   UNL     1       8.554 192.008  40.200  1.00  0.00    -0.353 N 
ATOM      4  H   UNL     1       7.740 191.377  40.451  1.00  0.00     0.163 HD
ENDROOT
BRANCH   1   5
ATOM      5  C   UNL     1       9.949 191.072  42.035  1.00  0.00     0.225 C 
BRANCH   5   6
ATOM      6  N   UNL     1      11.110 190.244  41.947  1.00  0.00    -0.306 N 
ATOM      7  C   UNL     1      13.394 188.586  41.748  1.00  0.00     0.044 A 
ATOM      8  C   UNL     1      12.369 188.519  40.829  1.00  0.00     0.044 A 
ATOM      9  C   UNL     1      13.215 189.526  42.771  1.00  0.00     0.097 A 
ATOM     10  C   UNL     1      11.256 189.363  40.971  1.00  0.00     0.092 A 
ATOM     11  C   UNL     1      12.100 190.327  42.857  1.00  0.00     0.253 A 
ATOM     12  O   UNL     1      11.994 191.162  43.809  1.00  0.00    -0.269 OA
BRANCH   7  13
ATOM     13  N   UNL     1      14.552 187.788  41.693  1.00  0.00    -0.369 N 
ATOM     14  N   UNL     1      16.911 187.316  40.463  1.00  0.00    -0.296 NA
ATOM     15  C   UNL     1      16.022 186.190  40.756  1.00  0.00     0.106 C 
ATOM     16  C   UNL     1      16.902 188.248  41.587  1.00  0.00     0.106 C 
ATOM     17  C   UNL     1      14.602 186.645  40.786  1.00  0.00     0.132 C 
ATOM     18  C   UNL     1      15.695 188.039  42.499  1.00  0.00     0.132 C 
BRANCH  14  19
ATOM     19  C   UNL     1      16.412 188.036  39.306  1.00  0.00     0.111 C 
BRANCH  19  20
ATOM     20  C   UNL     1      17.532 188.488  38.475  1.00  0.00    -0.019 C 
ATOM     21  C   UNL     1      18.552 187.741  38.126  1.00  0.00     0.005 C 
ENDBRANCH  19  20
ENDBRANCH  14  19
ENDBRANCH   7  13
ENDBRANCH   5   6
ENDBRANCH   1   5
BRANCH   3  22
ATOM     22  C   UNL     1       8.351 192.891  39.092  1.00  0.00     0.114 C 
BRANCH  22  23
ATOM     23  C   UNL     1       7.083 192.623  38.328  1.00  0.00     0.025 C 
BRANCH  23  24
ATOM     24  C   UNL     1       7.305 192.441  36.860  1.00  0.00    -0.016 C 
ATOM     25  C   UNL     1       7.797 191.100  36.440  1.00  0.00     0.007 C 
ATOM     26  C   UNL     1       6.058 192.751  36.051  1.00  0.00     0.007 C 
ENDBRANCH  23  24
ENDBRANCH  22  23
BRANCH  22  27
ATOM     27  B   UNL     1       8.196 194.353  39.742  1.00  0.00     0.475 C 
BRANCH  27  28
ATOM     28  O   UNL     1       7.409 195.307  38.950  1.00  0.00    -0.426 OA
ATOM     29  H   UNL     1       7.758 196.234  39.078  1.00  0.00     0.189 HD
ENDBRANCH  27  28
BRANCH  27  30
ATOM     30  O   UNL     1       8.188 194.542  41.185  1.00  0.00    -0.426 OA
ATOM     31  H   UNL     1       8.796 195.252  41.483  1.00  0.00     0.189 HD
ENDBRANCH  27  30
ENDBRANCH  22  27
ENDBRANCH   3  22
TORSDOF 11
ENDMDL
MODEL 5
REMARK VINA RESULT:      -6.3      2.747      8.886
REMARK SMILES C=CCN1CCN(c2ccn(CC(=O)N[C@@H](CC(C)C)B(O)O)c(=O)c2)CC1
REMARK SMILES IDX 13 1 14 2 15 3 12 5 11 6 8 7 9 8 26 9 10 10 24 11 25 12 7 13
REMARK SMILES IDX 4 14 5 15 28 16 6 17 27 18 3 19 2 20 1 21 16 22 17 23 18 24
REMARK SMILES IDX 19 25 20 26 21 27 22 28 23 30
REMARK H PARENT 15 4 22 29 23 31
ROOT
ATOM      1  C   UNL     1      10.041 192.289  42.546  1.00  0.00     0.239 C 
ATOM      2  O   UNL     1      10.213 193.494  42.854  1.00  0.00    -0.273 OA
ATOM      3  N   UNL     1       9.117 191.996  41.510  1.00  0.00    -0.353 N 
ATOM      4  H   UNL     1       8.908 191.007  41.187  1.00  0.00     0.163 HD
ENDROOT
BRANCH   1   5
ATOM      5  C   UNL     1      10.747 191.184  43.205  1.00  0.00     0.225 C 
BRANCH   5   6
ATOM      6  N   UNL     1      11.647 190.474  42.353  1.00  0.00    -0.306 N 
ATOM      7  C   UNL     1      13.452 189.094  40.668  1.00  0.00     0.044 A 
ATOM      8  C   UNL     1      13.838 190.205  41.385  1.00  0.00     0.044 A 
ATOM      9  C   UNL     1      12.116 188.710  40.839  1.00  0.00     0.097 A 
ATOM     10  C   UNL     1      12.906 190.856  42.207  1.00  0.00     0.092 A 
ATOM     11  C   UNL     1      11.248 189.390  41.662  1.00  0.00     0.253 A 
ATOM     12  O   UNL     1      10.046 188.994  41.776  1.00  0.00    -0.269 OA
BRANCH   7  13
ATOM     13  N   UNL     1      14.311 188.368  39.820  1.00  0.00    -0.369 N 
ATOM     14  N   UNL     1      16.405 186.671  39.645  1.00  0.00    -0.296 NA
ATOM     15  C   UNL     1      16.366 187.846  38.774  1.00  0.00     0.106 C 
ATOM     16  C   UNL     1      15.067 186.095  39.746  1.00  0.00     0.106 C 
ATOM     17  C   UNL     1      15.591 188.945  39.420  1.00  0.00     0.132 C 
ATOM     18  C   UNL     1      13.982 187.081  39.316  1.00  0.00     0.132 C 
BRANCH  14  19
ATOM     19  C   UNL     1      16.799 187.074  40.983  1.00  0.00     0.111 C 
BRANCH  19  20
ATOM     20  C   UNL     1      17.846 186.181  41.488  1.00  0.00    -0.019 C 
ATOM     21  C   UNL     1      18.078 185.947  42.758  1.00  0.00     0.005 C 
ENDBRANCH  19  20
ENDBRANCH  14  19
ENDBRANCH   7  13
ENDBRANCH   5   6
ENDBRANCH   1   5
BRANCH   3  22
ATOM     22  C   UNL     1       8.409 193.043  40.838  1.00  0.00     0.114 C 
BRANCH  22  23
ATOM     23  C   UNL     1       9.062 193.490  39.558  1.00  0.00     0.025 C 
BRANCH  23  24
ATOM     24  C   UNL     1       9.077 194.977  39.392  1.00  0.00    -0.016 C 
ATOM     25  C   UNL     1      10.314 195.667  39.848  1.00  0.00     0.007 C 
ATOM     26  C   UNL     1       8.818 195.393  37.954  1.00  0.00     0.007 C 
ENDBRANCH  23  24
ENDBRANCH  22  23
BRANCH  22  27
ATOM     27  B   UNL     1       6.993 192.399  40.431  1.00  0.00     0.475 C 
BRANCH  27  28
ATOM     28  O   UNL     1       6.766 192.252  38.988  1.00  0.00    -0.426 OA
ATOM     29  H   UNL     1       7.208 191.423  38.652  1.00  0.00     0.189 HD
ENDBRANCH  27  28
BRANCH  27  30
ATOM     30  O   UNL     1       6.323 191.440  41.297  1.00  0.00    -0.426 OA
ATOM     31  H   UNL     1       6.717 190.542  41.254  1.00  0.00     0.189 HD
ENDBRANCH  27  30
ENDBRANCH  22  27
ENDBRANCH   3  22
TORSDOF 11
ENDMDL
MODEL 6
REMARK VINA RESULT:      -6.2      3.257      8.748
REMARK SMILES C=CCN1CCN(c2ccn(CC(=O)N[C@@H](CC(C)C)B(O)O)c(=O)c2)CC1
REMARK SMILES IDX 13 1 14 2 15 3 12 5 11 6 8 7 9 8 26 9 10 10 24 11 25 12 7 13
REMARK SMILES IDX 4 14 5 15 28 16 6 17 27 18 3 19 2 20 1 21 16 22 17 23 18 24
REMARK SMILES IDX 19 25 20 26 21 27 22 28 23 30
REMARK H PARENT 15 4 22 29 23 31
ROOT
ATOM      1  C   UNL     1       9.645 193.337  42.344  1.00  0.00     0.239 C 
ATOM      2  O   UNL     1       8.713 192.921  43.076  1.00  0.00    -0.273 OA
ATOM      3  N   UNL     1      10.461 194.385  42.844  1.00  0.00    -0.353 N 
ATOM      4  H   UNL     1      11.268 194.799  42.294  1.00  0.00     0.163 HD
ENDROOT
BRANCH   1   5
ATOM      5  C   UNL     1       9.922 192.793  41.010  1.00  0.00     0.225 C 
BRANCH   5   6
ATOM      6  N   UNL     1      10.782 191.652  41.011  1.00  0.00    -0.306 N 
ATOM      7  C   UNL     1      12.458 189.373  41.018  1.00  0.00     0.044 A 
ATOM      8  C   UNL     1      11.086 189.261  40.966  1.00  0.00     0.044 A 
ATOM      9  C   UNL     1      12.947 190.685  41.067  1.00  0.00     0.097 A 
ATOM     10  C   UNL     1      10.297 190.422  40.965  1.00  0.00     0.092 A 
ATOM     11  C   UNL     1      12.121 191.786  41.062  1.00  0.00     0.253 A 
ATOM     12  O   UNL     1      12.623 192.952  41.108  1.00  0.00    -0.269 OA
BRANCH   7  13
ATOM     13  N   UNL     1      13.337 188.273  41.019  1.00  0.00    -0.369 N 
ATOM     14  N   UNL     1      15.791 187.344  40.380  1.00  0.00    -0.296 NA
ATOM     15  C   UNL     1      14.616 186.539  40.045  1.00  0.00     0.106 C 
ATOM     16  C   UNL     1      15.612 187.944  41.699  1.00  0.00     0.106 C 
ATOM     17  C   UNL     1      13.428 187.418  39.840  1.00  0.00     0.132 C 
ATOM     18  C   UNL     1      14.149 187.942  42.137  1.00  0.00     0.132 C 
BRANCH  14  19
ATOM     19  C   UNL     1      15.918 188.434  39.429  1.00  0.00     0.111 C 
BRANCH  19  20
ATOM     20  C   UNL     1      17.012 188.157  38.492  1.00  0.00    -0.019 C 
ATOM     21  C   UNL     1      17.759 187.080  38.515  1.00  0.00     0.005 C 
ENDBRANCH  19  20
ENDBRANCH  14  19
ENDBRANCH   7  13
ENDBRANCH   5   6
ENDBRANCH   1   5
BRANCH   3  22
ATOM     22  C   UNL     1      10.230 194.944  44.142  1.00  0.00     0.114 C 
BRANCH  22  23
ATOM     23  C   UNL     1      11.337 194.674  45.123  1.00  0.00     0.025 C 
BRANCH  23  24
ATOM     24  C   UNL     1      11.006 193.595  46.106  1.00  0.00    -0.016 C 
ATOM     25  C   UNL     1      11.263 192.202  45.649  1.00  0.00     0.007 C 
ATOM     26  C   UNL     1      11.725 193.789  47.429  1.00  0.00     0.007 C 
ENDBRANCH  23  24
ENDBRANCH  22  23
BRANCH  22  27
ATOM     27  B   UNL     1      10.193 196.535  43.914  1.00  0.00     0.475 C 
BRANCH  27  28
ATOM     28  O   UNL     1       8.851 197.112  43.769  1.00  0.00    -0.426 OA
ATOM     29  H   UNL     1       8.800 197.663  42.938  1.00  0.00     0.189 HD
ENDBRANCH  27  28
BRANCH  27  30
ATOM     30  O   UNL     1      11.218 197.402  44.475  1.00  0.00    -0.426 OA
ATOM     31  H   UNL     1      11.080 197.594  45.428  1.00  0.00     0.189 HD
ENDBRANCH  27  30
ENDBRANCH  22  27
ENDBRANCH   3  22
TORSDOF 11
ENDMDL
MODEL 7
REMARK VINA RESULT:      -6.2      3.356      8.560
REMARK SMILES C=CCN1CCN(c2ccn(CC(=O)N[C@@H](CC(C)C)B(O)O)c(=O)c2)CC1
REMARK SMILES IDX 13 1 14 2 15 3 12 5 11 6 8 7 9 8 26 9 10 10 24 11 25 12 7 13
REMARK SMILES IDX 4 14 5 15 28 16 6 17 27 18 3 19 2 20 1 21 16 22 17 23 18 24
REMARK SMILES IDX 19 25 20 26 21 27 22 28 23 30
REMARK H PARENT 15 4 22 29 23 31
ROOT
ATOM      1  C   UNL     1       7.659 192.989  40.595  1.00  0.00     0.239 C 
ATOM      2  O   UNL     1       7.556 194.234  40.726  1.00  0.00    -0.273 OA
ATOM      3  N   UNL     1       7.543 192.449  39.288  1.00  0.00    -0.353 N 
ATOM      4  H   UNL     1       7.614 191.411  39.085  1.00  0.00     0.163 HD
ENDROOT
BRANCH   1   5
ATOM      5  C   UNL     1       7.890 192.080  41.724  1.00  0.00     0.225 C 
BRANCH   5   6
ATOM      6  N   UNL     1       9.238 191.621  41.838  1.00  0.00    -0.306 N 
ATOM      7  C   UNL     1      11.901 190.689  42.041  1.00  0.00     0.044 A 
ATOM      8  C   UNL     1      11.054 190.248  41.048  1.00  0.00     0.044 A 
ATOM      9  C   UNL     1      11.345 191.621  42.927  1.00  0.00     0.097 A 
ATOM     10  C   UNL     1       9.741 190.740  40.989  1.00  0.00     0.092 A 
ATOM     11  C   UNL     1      10.048 192.067  42.817  1.00  0.00     0.253 A 
ATOM     12  O   UNL     1       9.599 192.914  43.651  1.00  0.00    -0.269 OA
BRANCH   7  13
ATOM     13  N   UNL     1      13.235 190.261  42.184  1.00  0.00    -0.369 N 
ATOM     14  N   UNL     1      15.147 188.528  41.386  1.00  0.00    -0.296 NA
ATOM     15  C   UNL     1      14.963 188.776  42.817  1.00  0.00     0.106 C 
ATOM     16  C   UNL     1      15.016 189.783  40.653  1.00  0.00     0.106 C 
ATOM     17  C   UNL     1      13.551 189.167  43.097  1.00  0.00     0.132 C 
ATOM     18  C   UNL     1      14.311 190.860  41.476  1.00  0.00     0.132 C 
BRANCH  14  19
ATOM     19  C   UNL     1      14.098 187.644  40.911  1.00  0.00     0.111 C 
BRANCH  19  20
ATOM     20  C   UNL     1      14.688 186.450  40.297  1.00  0.00    -0.019 C 
ATOM     21  C   UNL     1      15.185 186.403  39.084  1.00  0.00     0.005 C 
ENDBRANCH  19  20
ENDBRANCH  14  19
ENDBRANCH   7  13
ENDBRANCH   5   6
ENDBRANCH   1   5
BRANCH   3  22
ATOM     22  C   UNL     1       7.321 193.299  38.157  1.00  0.00     0.114 C 
BRANCH  22  23
ATOM     23  C   UNL     1       8.587 193.831  37.543  1.00  0.00     0.025 C 
BRANCH  23  24
ATOM     24  C   UNL     1       8.657 195.326  37.536  1.00  0.00    -0.016 C 
ATOM     25  C   UNL     1       7.384 196.036  37.840  1.00  0.00     0.007 C 
ATOM     26  C   UNL     1       9.719 195.852  38.485  1.00  0.00     0.007 C 
ENDBRANCH  23  24
ENDBRANCH  22  23
BRANCH  22  27
ATOM     27  B   UNL     1       6.632 192.357  37.052  1.00  0.00     0.475 C 
BRANCH  27  28
ATOM     28  O   UNL     1       7.236 191.027  36.903  1.00  0.00    -0.426 OA
ATOM     29  H   UNL     1       8.068 191.085  36.355  1.00  0.00     0.189 HD
ENDBRANCH  27  28
BRANCH  27  30
ATOM     30  O   UNL     1       5.215 192.468  36.742  1.00  0.00    -0.426 OA
ATOM     31  H   UNL     1       4.939 193.386  36.527  1.00  0.00     0.189 HD
ENDBRANCH  27  30
ENDBRANCH  22  27
ENDBRANCH   3  22
TORSDOF 11
ENDMDL
MODEL 8
REMARK VINA RESULT:      -6.0      2.545      3.829
REMARK SMILES C=CCN1CCN(c2ccn(CC(=O)N[C@@H](CC(C)C)B(O)O)c(=O)c2)CC1
REMARK SMILES IDX 13 1 14 2 15 3 12 5 11 6 8 7 9 8 26 9 10 10 24 11 25 12 7 13
REMARK SMILES IDX 4 14 5 15 28 16 6 17 27 18 3 19 2 20 1 21 16 22 17 23 18 24
REMARK SMILES IDX 19 25 20 26 21 27 22 28 23 30
REMARK H PARENT 15 4 22 29 23 31
ROOT
ATOM      1  C   UNL     1      16.804 189.798  41.160  1.00  0.00     0.239 C 
ATOM      2  O   UNL     1      17.213 188.837  41.858  1.00  0.00    -0.273 OA
ATOM      3  N   UNL     1      16.663 189.589  39.763  1.00  0.00    -0.353 N 
ATOM      4  H   UNL     1      16.327 190.344  39.099  1.00  0.00     0.163 HD
ENDROOT
BRANCH   1   5
ATOM      5  C   UNL     1      16.471 191.112  41.721  1.00  0.00     0.225 C 
BRANCH   5   6
ATOM      6  N   UNL     1      15.119 191.517  41.497  1.00  0.00    -0.306 N 
ATOM      7  C   UNL     1      12.433 192.288  41.059  1.00  0.00     0.044 A 
ATOM      8  C   UNL     1      12.754 191.065  41.606  1.00  0.00     0.044 A 
ATOM      9  C   UNL     1      13.527 193.105  40.743  1.00  0.00     0.097 A 
ATOM     10  C   UNL     1      14.102 190.728  41.803  1.00  0.00     0.092 A 
ATOM     11  C   UNL     1      14.829 192.718  40.961  1.00  0.00     0.253 A 
ATOM     12  O   UNL     1      15.780 193.503  40.654  1.00  0.00    -0.269 OA
BRANCH   7  13
ATOM     13  N   UNL     1      11.114 192.722  40.825  1.00  0.00    -0.369 N 
ATOM     14  N   UNL     1       8.755 193.462  41.912  1.00  0.00    -0.296 NA
ATOM     15  C   UNL     1       8.758 192.526  40.788  1.00  0.00     0.106 C 
ATOM     16  C   UNL     1       9.756 194.500  41.685  1.00  0.00     0.106 C 
ATOM     17  C   UNL     1      10.030 191.747  40.766  1.00  0.00     0.132 C 
ATOM     18  C   UNL     1      10.781 194.090  40.629  1.00  0.00     0.132 C 
BRANCH  14  19
ATOM     19  C   UNL     1       9.134 192.761  43.125  1.00  0.00     0.111 C 
BRANCH  19  20
ATOM     20  C   UNL     1       9.899 193.653  44.002  1.00  0.00    -0.019 C 
ATOM     21  C   UNL     1      10.940 193.290  44.712  1.00  0.00     0.005 C 
ENDBRANCH  19  20
ENDBRANCH  14  19
ENDBRANCH   7  13
ENDBRANCH   5   6
ENDBRANCH   1   5
BRANCH   3  22
ATOM     22  C   UNL     1      16.974 188.322  39.174  1.00  0.00     0.114 C 
BRANCH  22  23
ATOM     23  C   UNL     1      15.808 187.676  38.477  1.00  0.00     0.025 C 
BRANCH  23  24
ATOM     24  C   UNL     1      15.325 186.435  39.159  1.00  0.00    -0.016 C 
ATOM     25  C   UNL     1      16.376 185.452  39.536  1.00  0.00     0.007 C 
ATOM     26  C   UNL     1      14.515 186.748  40.406  1.00  0.00     0.007 C 
ENDBRANCH  23  24
ENDBRANCH  22  23
BRANCH  22  27
ATOM     27  B   UNL     1      18.068 188.642  38.041  1.00  0.00     0.475 C 
BRANCH  27  28
ATOM     28  O   UNL     1      18.769 189.923  38.196  1.00  0.00    -0.426 OA
ATOM     29  H   UNL     1      19.666 189.881  37.759  1.00  0.00     0.189 HD
ENDBRANCH  27  28
BRANCH  27  30
ATOM     30  O   UNL     1      18.800 187.575  37.374  1.00  0.00    -0.426 OA
ATOM     31  H   UNL     1      19.712 187.836  37.119  1.00  0.00     0.189 HD
ENDBRANCH  27  30
ENDBRANCH  22  27
ENDBRANCH   3  22
TORSDOF 11
ENDMDL
MODEL 9
REMARK VINA RESULT:      -5.8      2.949      9.140
REMARK SMILES C=CCN1CCN(c2ccn(CC(=O)N[C@@H](CC(C)C)B(O)O)c(=O)c2)CC1
REMARK SMILES IDX 13 1 14 2 15 3 12 5 11 6 8 7 9 8 26 9 10 10 24 11 25 12 7 13
REMARK SMILES IDX 4 14 5 15 28 16 6 17 27 18 3 19 2 20 1 21 16 22 17 23 18 24
REMARK SMILES IDX 19 25 20 26 21 27 22 28 23 30
REMARK H PARENT 15 4 22 29 23 31
ROOT
ATOM      1  C   UNL     1      10.175 192.519  40.802  1.00  0.00     0.239 C 
ATOM      2  O   UNL     1      10.797 193.513  40.352  1.00  0.00    -0.273 OA
ATOM      3  N   UNL     1       8.923 192.200  40.214  1.00  0.00    -0.353 N 
ATOM      4  H   UNL     1       8.330 191.380  40.532  1.00  0.00     0.163 HD
ENDROOT
BRANCH   1   5
ATOM      5  C   UNL     1      10.681 191.685  41.898  1.00  0.00     0.225 C 
BRANCH   5   6
ATOM      6  N   UNL     1      11.692 190.755  41.505  1.00  0.00    -0.306 N 
ATOM      7  C   UNL     1      13.716 188.940  40.721  1.00  0.00     0.044 A 
ATOM      8  C   UNL     1      13.972 190.285  40.876  1.00  0.00     0.044 A 
ATOM      9  C   UNL     1      12.395 188.552  40.979  1.00  0.00     0.097 A 
ATOM     10  C   UNL     1      12.934 191.146  41.267  1.00  0.00     0.092 A 
ATOM     11  C   UNL     1      11.420 189.445  41.360  1.00  0.00     0.253 A 
ATOM     12  O   UNL     1      10.238 189.032  41.580  1.00  0.00    -0.269 OA
BRANCH   7  13
ATOM     13  N   UNL     1      14.687 187.996  40.337  1.00  0.00    -0.369 N 
ATOM     14  N   UNL     1      16.525 186.191  41.150  1.00  0.00    -0.296 NA
ATOM     15  C   UNL     1      16.876 187.138  40.091  1.00  0.00     0.106 C 
ATOM     16  C   UNL     1      15.155 185.727  40.954  1.00  0.00     0.106 C 
ATOM     17  C   UNL     1      16.087 188.395  40.237  1.00  0.00     0.132 C 
ATOM     18  C   UNL     1      14.363 186.647  40.027  1.00  0.00     0.132 C 
BRANCH  14  19
ATOM     19  C   UNL     1      16.568 186.866  42.435  1.00  0.00     0.111 C 
BRANCH  19  20
ATOM     20  C   UNL     1      16.230 185.925  43.507  1.00  0.00    -0.019 C 
ATOM     21  C   UNL     1      17.087 185.124  44.095  1.00  0.00     0.005 C 
ENDBRANCH  19  20
ENDBRANCH  14  19
ENDBRANCH   7  13
ENDBRANCH   5   6
ENDBRANCH   1   5
BRANCH   3  22
ATOM     22  C   UNL     1       8.393 192.984  39.140  1.00  0.00     0.114 C 
BRANCH  22  23
ATOM     23  C   UNL     1       7.251 192.326  38.416  1.00  0.00     0.025 C 
BRANCH  23  24
ATOM     24  C   UNL     1       7.409 192.338  36.928  1.00  0.00    -0.016 C 
ATOM     25  C   UNL     1       7.948 191.089  36.323  1.00  0.00     0.007 C 
ATOM     26  C   UNL     1       6.109 192.674  36.219  1.00  0.00     0.007 C 
ENDBRANCH  23  24
ENDBRANCH  22  23
BRANCH  22  27
ATOM     27  B   UNL     1       7.796 194.303  39.839  1.00  0.00     0.475 C 
BRANCH  27  28
ATOM     28  O   UNL     1       8.302 194.576  41.190  1.00  0.00    -0.426 OA
ATOM     29  H   UNL     1       7.775 194.065  41.866  1.00  0.00     0.189 HD
ENDBRANCH  27  28
BRANCH  27  30
ATOM     30  O   UNL     1       7.388 195.457  39.050  1.00  0.00    -0.426 OA
ATOM     31  H   UNL     1       7.946 195.595  38.255  1.00  0.00     0.189 HD
ENDBRANCH  27  30
ENDBRANCH  22  27
ENDBRANCH   3  22
TORSDOF 11
ENDMDL
MODEL 10
REMARK VINA RESULT:      -5.7      2.663      8.988
REMARK SMILES C=CCN1CCN(c2ccn(CC(=O)N[C@@H](CC(C)C)B(O)O)c(=O)c2)CC1
REMARK SMILES IDX 13 1 14 2 15 3 12 5 11 6 8 7 9 8 26 9 10 10 24 11 25 12 7 13
REMARK SMILES IDX 4 14 5 15 28 16 6 17 27 18 3 19 2 20 1 21 16 22 17 23 18 24
REMARK SMILES IDX 19 25 20 26 21 27 22 28 23 30
REMARK H PARENT 15 4 22 29 23 31
ROOT
ATOM      1  C   UNL     1       9.806 191.606  41.219  1.00  0.00     0.239 C 
ATOM      2  O   UNL     1      10.454 192.683  41.226  1.00  0.00    -0.273 OA
ATOM      3  N   UNL     1       8.672 191.522  40.370  1.00  0.00    -0.353 N 
ATOM      4  H   UNL     1       8.067 190.654  40.301  1.00  0.00     0.163 HD
ENDROOT
BRANCH   1   5
ATOM      5  C   UNL     1      10.168 190.447  42.042  1.00  0.00     0.225 C 
BRANCH   5   6
ATOM      6  N   UNL     1      11.567 190.157  42.060  1.00  0.00    -0.306 N 
ATOM      7  C   UNL     1      14.342 189.611  42.119  1.00  0.00     0.044 A 
ATOM      8  C   UNL     1      13.765 190.515  42.983  1.00  0.00     0.044 A 
ATOM      9  C   UNL     1      13.458 188.995  41.224  1.00  0.00     0.097 A 
ATOM     10  C   UNL     1      12.384 190.753  42.915  1.00  0.00     0.092 A 
ATOM     11  C   UNL     1      12.110 189.269  41.206  1.00  0.00     0.253 A 
ATOM     12  O   UNL     1      11.357 188.678  40.370  1.00  0.00    -0.269 OA
BRANCH   7  13
ATOM     13  N   UNL     1      15.715 189.299  42.109  1.00  0.00    -0.369 N 
ATOM     14  N   UNL     1      17.817 188.406  40.667  1.00  0.00    -0.296 NA
ATOM     15  C   UNL     1      17.598 187.872  42.012  1.00  0.00     0.106 C 
ATOM     16  C   UNL     1      17.548 189.841  40.663  1.00  0.00     0.106 C 
ATOM     17  C   UNL     1      16.149 187.929  42.362  1.00  0.00     0.132 C 
ATOM     18  C   UNL     1      16.721 190.275  41.871  1.00  0.00     0.132 C 
BRANCH  14  19
ATOM     19  C   UNL     1      16.879 187.792  39.745  1.00  0.00     0.111 C 
BRANCH  19  20
ATOM     20  C   UNL     1      17.548 187.491  38.476  1.00  0.00    -0.019 C 
ATOM     21  C   UNL     1      18.095 186.337  38.176  1.00  0.00     0.005 C 
ENDBRANCH  19  20
ENDBRANCH  14  19
ENDBRANCH   7  13
ENDBRANCH   5   6
ENDBRANCH   1   5
BRANCH   3  22
ATOM     22  C   UNL     1       8.285 192.628  39.547  1.00  0.00     0.114 C 
BRANCH  22  23
ATOM     23  C   UNL     1       7.244 192.281  38.518  1.00  0.00     0.025 C 
BRANCH  23  24
ATOM     24  C   UNL     1       7.295 193.160  37.308  1.00  0.00    -0.016 C 
ATOM     25  C   UNL     1       8.357 194.203  37.308  1.00  0.00     0.007 C 
ATOM     26  C   UNL     1       7.433 192.358  36.025  1.00  0.00     0.007 C 
ENDBRANCH  23  24
ENDBRANCH  22  23
BRANCH  22  27
ATOM     27  B   UNL     1       7.604 193.681  40.553  1.00  0.00     0.475 C 
BRANCH  27  28
ATOM     28  O   UNL     1       6.560 193.127  41.423  1.00  0.00    -0.426 OA
ATOM     29  H   UNL     1       6.500 192.137  41.304  1.00  0.00     0.189 HD
ENDBRANCH  27  28
BRANCH  27  30
ATOM     30  O   UNL     1       8.348 194.819  41.071  1.00  0.00    -0.426 OA
ATOM     31  H   UNL     1       9.284 194.835  40.773  1.00  0.00     0.189 HD
ENDBRANCH  27  30
ENDBRANCH  22  27
ENDBRANCH   3  22
TORSDOF 11
ENDMDL
