MODEL 1
REMARK VINA RESULT:      -6.9      0.000      0.000
REMARK SMILES CC(C)CCNC(=O)Cn1cc(Br)c2ncccc2c1=O
REMARK SMILES IDX 6 1 7 2 8 3 5 5 4 6 2 7 1 8 3 9 9 10 10 11 11 12 20 13 12 14
REMARK SMILES IDX 19 15 21 16 14 17 18 18 15 19 17 20 16 21 13 22
REMARK H PARENT 6 4
ROOT
ATOM      1  N   UNL     1       7.194 192.331  39.193  1.00  0.00    -0.355 N 
ATOM      2  C   UNL     1       7.471 192.995  40.371  1.00  0.00     0.240 C 
ATOM      3  O   UNL     1       7.567 194.215  40.461  1.00  0.00    -0.273 OA
ATOM      4  H   UNL     1       6.939 191.345  39.256  1.00  0.00     0.163 HD
ENDROOT
BRANCH   1   5
ATOM      5  C   UNL     1       6.961 193.028  37.947  1.00  0.00     0.116 C 
BRANCH   5   6
ATOM      6  C   UNL     1       6.442 192.108  36.841  1.00  0.00     0.024 C 
BRANCH   6   7
ATOM      7  C   UNL     1       7.492 191.711  35.783  1.00  0.00    -0.016 C 
ATOM      8  C   UNL     1       6.793 191.422  34.451  1.00  0.00     0.007 C 
ATOM      9  C   UNL     1       8.318 190.495  36.205  1.00  0.00     0.007 C 
ENDBRANCH   6   7
ENDBRANCH   5   6
ENDBRANCH   1   5
BRANCH   2  10
ATOM     10  C   UNL     1       7.600 192.075  41.583  1.00  0.00     0.225 C 
BRANCH  10  11
ATOM     11  N   UNL     1       8.981 192.071  42.068  1.00  0.00    -0.304 N 
ATOM     12  C   UNL     1       9.296 192.759  43.227  1.00  0.00     0.107 A 
ATOM     13  C   UNL     1       9.925 191.321  41.366  1.00  0.00     0.260 A 
ATOM     14  C   UNL     1      10.536 192.799  43.736  1.00  0.00     0.060 A 
ATOM     15  C   UNL     1      11.311 191.354  41.879  1.00  0.00     0.067 A 
ATOM     16  O   UNL     1       9.647 190.641  40.380  1.00  0.00    -0.269 OA
ATOM     17  C   UNL     1      11.608 192.076  43.030  1.00  0.00     0.091 A 
ATOM     18  C   UNL     1      12.336 190.666  41.222  1.00  0.00     0.018 A 
ATOM     19  N   UNL     1      12.868 192.139  43.538  1.00  0.00    -0.255 NA
ATOM     20  C   UNL     1      13.627 190.722  41.736  1.00  0.00     0.021 A 
ATOM     21  C   UNL     1      13.842 191.466  42.885  1.00  0.00     0.112 A 
ATOM     22  Br  UNL     1      10.898 193.752  45.303  1.00  0.00    -0.047 Br
ENDBRANCH  10  11
ENDBRANCH   2  10
TORSDOF 5
ENDMDL
MODEL 2
REMARK VINA RESULT:      -6.7      1.869      2.394
REMARK SMILES CC(C)CCNC(=O)Cn1cc(Br)c2ncccc2c1=O
REMARK SMILES IDX 6 1 7 2 8 3 5 5 4 6 2 7 1 8 3 9 9 10 10 11 11 12 20 13 12 14
REMARK SMILES IDX 19 15 21 16 14 17 18 18 15 19 17 20 16 21 13 22
REMARK H PARENT 6 4
ROOT
ATOM      1  N   UNL     1       7.322 192.351  39.237  1.00  0.00    -0.355 N 
ATOM      2  C   UNL     1       7.541 193.002  40.434  1.00  0.00     0.240 C 
ATOM      3  O   UNL     1       7.679 194.218  40.536  1.00  0.00    -0.273 OA
ATOM      4  H   UNL     1       7.024 191.376  39.278  1.00  0.00     0.163 HD
ENDROOT
BRANCH   1   5
ATOM      5  C   UNL     1       7.205 193.058  37.981  1.00  0.00     0.116 C 
BRANCH   5   6
ATOM      6  C   UNL     1       6.497 192.237  36.902  1.00  0.00     0.024 C 
BRANCH   6   7
ATOM      7  C   UNL     1       7.414 191.721  35.775  1.00  0.00    -0.016 C 
ATOM      8  C   UNL     1       6.564 191.329  34.562  1.00  0.00     0.007 C 
ATOM      9  C   UNL     1       8.265 190.528  36.213  1.00  0.00     0.007 C 
ENDBRANCH   6   7
ENDBRANCH   5   6
ENDBRANCH   1   5
BRANCH   2  10
ATOM     10  C   UNL     1       7.547 192.076  41.649  1.00  0.00     0.225 C 
BRANCH  10  11
ATOM     11  N   UNL     1       8.923 191.796  42.062  1.00  0.00    -0.304 N 
ATOM     12  C   UNL     1       9.613 190.756  41.465  1.00  0.00     0.107 A 
ATOM     13  C   UNL     1       9.508 192.630  43.015  1.00  0.00     0.260 A 
ATOM     14  C   UNL     1      10.876 190.440  41.786  1.00  0.00     0.060 A 
ATOM     15  C   UNL     1      10.894 192.306  43.417  1.00  0.00     0.067 A 
ATOM     16  O   UNL     1       8.937 193.605  43.499  1.00  0.00    -0.269 OA
ATOM     17  C   UNL     1      11.557 191.238  42.822  1.00  0.00     0.091 A 
ATOM     18  C   UNL     1      11.553 193.059  44.392  1.00  0.00     0.018 A 
ATOM     19  N   UNL     1      12.830 190.898  43.160  1.00  0.00    -0.255 NA
ATOM     20  C   UNL     1      12.856 192.722  44.743  1.00  0.00     0.021 A 
ATOM     21  C   UNL     1      13.446 191.642  44.106  1.00  0.00     0.112 A 
ATOM     22  Br  UNL     1      11.753 189.019  40.946  1.00  0.00    -0.047 Br
ENDBRANCH  10  11
ENDBRANCH   2  10
TORSDOF 5
ENDMDL
MODEL 3
REMARK VINA RESULT:      -6.6      1.808      2.054
REMARK SMILES CC(C)CCNC(=O)Cn1cc(Br)c2ncccc2c1=O
REMARK SMILES IDX 6 1 7 2 8 3 5 5 4 6 2 7 1 8 3 9 9 10 10 11 11 12 20 13 12 14
REMARK SMILES IDX 19 15 21 16 14 17 18 18 15 19 17 20 16 21 13 22
REMARK H PARENT 6 4
ROOT
ATOM      1  N   UNL     1       7.899 192.132  39.525  1.00  0.00    -0.355 N 
ATOM      2  C   UNL     1       7.937 192.913  40.662  1.00  0.00     0.240 C 
ATOM      3  O   UNL     1       7.476 194.050  40.727  1.00  0.00    -0.273 OA
ATOM      4  H   UNL     1       8.125 191.143  39.625  1.00  0.00     0.163 HD
ENDROOT
BRANCH   1   5
ATOM      5  C   UNL     1       7.277 192.580  38.298  1.00  0.00     0.116 C 
BRANCH   5   6
ATOM      6  C   UNL     1       7.837 191.878  37.060  1.00  0.00     0.024 C 
BRANCH   6   7
ATOM      7  C   UNL     1       7.030 192.107  35.766  1.00  0.00    -0.016 C 
ATOM      8  C   UNL     1       5.616 192.577  36.120  1.00  0.00     0.007 C 
ATOM      9  C   UNL     1       6.952 190.853  34.894  1.00  0.00     0.007 C 
ENDBRANCH   6   7
ENDBRANCH   5   6
ENDBRANCH   1   5
BRANCH   2  10
ATOM     10  C   UNL     1       8.565 192.218  41.869  1.00  0.00     0.225 C 
BRANCH  10  11
ATOM     11  N   UNL     1       9.984 191.957  41.619  1.00  0.00    -0.304 N 
ATOM     12  C   UNL     1      10.837 193.019  41.375  1.00  0.00     0.107 A 
ATOM     13  C   UNL     1      10.434 190.639  41.689  1.00  0.00     0.260 A 
ATOM     14  C   UNL     1      12.148 192.862  41.142  1.00  0.00     0.060 A 
ATOM     15  C   UNL     1      11.870 190.414  41.417  1.00  0.00     0.067 A 
ATOM     16  O   UNL     1       9.706 189.692  41.981  1.00  0.00    -0.269 OA
ATOM     17  C   UNL     1      12.702 191.496  41.147  1.00  0.00     0.091 A 
ATOM     18  C   UNL     1      12.409 189.125  41.426  1.00  0.00     0.018 A 
ATOM     19  N   UNL     1      14.028 191.340  40.887  1.00  0.00    -0.255 NA
ATOM     20  C   UNL     1      13.764 188.956  41.164  1.00  0.00     0.021 A 
ATOM     21  C   UNL     1      14.526 190.083  40.902  1.00  0.00     0.112 A 
ATOM     22  Br  UNL     1      13.248 194.337  40.814  1.00  0.00    -0.047 Br
ENDBRANCH  10  11
ENDBRANCH   2  10
TORSDOF 5
ENDMDL
MODEL 4
REMARK VINA RESULT:      -6.2      2.194      3.132
REMARK SMILES CC(C)CCNC(=O)Cn1cc(Br)c2ncccc2c1=O
REMARK SMILES IDX 6 1 7 2 8 3 5 5 4 6 2 7 1 8 3 9 9 10 10 11 11 12 20 13 12 14
REMARK SMILES IDX 19 15 21 16 14 17 18 18 15 19 17 20 16 21 13 22
REMARK H PARENT 6 4
ROOT
ATOM      1  N   UNL     1       8.463 192.294  39.043  1.00  0.00    -0.355 N 
ATOM      2  C   UNL     1       8.550 191.898  40.362  1.00  0.00     0.240 C 
ATOM      3  O   UNL     1       7.575 191.686  41.079  1.00  0.00    -0.273 OA
ATOM      4  H   UNL     1       9.313 192.251  38.481  1.00  0.00     0.163 HD
ENDROOT
BRANCH   1   5
ATOM      5  C   UNL     1       7.195 192.469  38.369  1.00  0.00     0.116 C 
BRANCH   5   6
ATOM      6  C   UNL     1       7.346 192.639  36.856  1.00  0.00     0.024 C 
BRANCH   6   7
ATOM      7  C   UNL     1       6.936 191.410  36.022  1.00  0.00    -0.016 C 
ATOM      8  C   UNL     1       8.038 190.348  36.098  1.00  0.00     0.007 C 
ATOM      9  C   UNL     1       6.659 191.760  34.559  1.00  0.00     0.007 C 
ENDBRANCH   6   7
ENDBRANCH   5   6
ENDBRANCH   1   5
BRANCH   2  10
ATOM     10  C   UNL     1       9.981 191.692  40.852  1.00  0.00     0.225 C 
BRANCH  10  11
ATOM     11  N   UNL     1      10.298 192.659  41.905  1.00  0.00    -0.304 N 
ATOM     12  C   UNL     1      10.424 193.998  41.582  1.00  0.00     0.107 A 
ATOM     13  C   UNL     1      10.409 192.194  43.216  1.00  0.00     0.260 A 
ATOM     14  C   UNL     1      10.709 194.944  42.490  1.00  0.00     0.060 A 
ATOM     15  C   UNL     1      10.744 193.198  44.248  1.00  0.00     0.067 A 
ATOM     16  O   UNL     1      10.224 191.021  43.533  1.00  0.00    -0.269 OA
ATOM     17  C   UNL     1      10.894 194.535  43.893  1.00  0.00     0.091 A 
ATOM     18  C   UNL     1      10.915 192.824  45.584  1.00  0.00     0.018 A 
ATOM     19  N   UNL     1      11.205 195.494  44.806  1.00  0.00    -0.255 NA
ATOM     20  C   UNL     1      11.231 193.799  46.525  1.00  0.00     0.021 A 
ATOM     21  C   UNL     1      11.364 195.108  46.091  1.00  0.00     0.112 A 
ATOM     22  Br  UNL     1      10.871 196.737  41.988  1.00  0.00    -0.047 Br
ENDBRANCH  10  11
ENDBRANCH   2  10
TORSDOF 5
ENDMDL
MODEL 5
REMARK VINA RESULT:      -6.2      2.122      3.408
REMARK SMILES CC(C)CCNC(=O)Cn1cc(Br)c2ncccc2c1=O
REMARK SMILES IDX 6 1 7 2 8 3 5 5 4 6 2 7 1 8 3 9 9 10 10 11 11 12 20 13 12 14
REMARK SMILES IDX 19 15 21 16 14 17 18 18 15 19 17 20 16 21 13 22
REMARK H PARENT 6 4
ROOT
ATOM      1  N   UNL     1       8.588 192.625  39.193  1.00  0.00    -0.355 N 
ATOM      2  C   UNL     1       8.773 192.001  40.410  1.00  0.00     0.240 C 
ATOM      3  O   UNL     1       7.867 191.484  41.058  1.00  0.00    -0.273 OA
ATOM      4  H   UNL     1       9.420 192.844  38.644  1.00  0.00     0.163 HD
ENDROOT
BRANCH   1   5
ATOM      5  C   UNL     1       7.295 192.702  38.551  1.00  0.00     0.116 C 
BRANCH   5   6
ATOM      6  C   UNL     1       7.394 192.782  37.026  1.00  0.00     0.024 C 
BRANCH   6   7
ATOM      7  C   UNL     1       7.093 191.463  36.287  1.00  0.00    -0.016 C 
ATOM      8  C   UNL     1       8.346 190.582  36.282  1.00  0.00     0.007 C 
ATOM      9  C   UNL     1       6.619 191.691  34.851  1.00  0.00     0.007 C 
ENDBRANCH   6   7
ENDBRANCH   5   6
ENDBRANCH   1   5
BRANCH   2  10
ATOM     10  C   UNL     1      10.229 191.959  40.868  1.00  0.00     0.225 C 
BRANCH  10  11
ATOM     11  N   UNL     1      10.376 192.656  42.147  1.00  0.00    -0.304 N 
ATOM     12  C   UNL     1      10.726 191.937  43.276  1.00  0.00     0.107 A 
ATOM     13  C   UNL     1      10.206 194.041  42.167  1.00  0.00     0.260 A 
ATOM     14  C   UNL     1      10.883 192.503  44.481  1.00  0.00     0.060 A 
ATOM     15  C   UNL     1      10.348 194.706  43.480  1.00  0.00     0.067 A 
ATOM     16  O   UNL     1       9.972 194.706  41.160  1.00  0.00    -0.269 OA
ATOM     17  C   UNL     1      10.673 193.957  44.606  1.00  0.00     0.091 A 
ATOM     18  C   UNL     1      10.159 196.085  43.610  1.00  0.00     0.018 A 
ATOM     19  N   UNL     1      10.811 194.523  45.835  1.00  0.00    -0.255 NA
ATOM     20  C   UNL     1      10.300 196.673  44.862  1.00  0.00     0.021 A 
ATOM     21  C   UNL     1      10.623 195.858  45.935  1.00  0.00     0.112 A 
ATOM     22  Br  UNL     1      11.353 191.476  45.970  1.00  0.00    -0.047 Br
ENDBRANCH  10  11
ENDBRANCH   2  10
TORSDOF 5
ENDMDL
MODEL 6
REMARK VINA RESULT:      -5.6      3.553      6.900
REMARK SMILES CC(C)CCNC(=O)Cn1cc(Br)c2ncccc2c1=O
REMARK SMILES IDX 6 1 7 2 8 3 5 5 4 6 2 7 1 8 3 9 9 10 10 11 11 12 20 13 12 14
REMARK SMILES IDX 19 15 21 16 14 17 18 18 15 19 17 20 16 21 13 22
REMARK H PARENT 6 4
ROOT
ATOM      1  N   UNL     1      14.082 187.766  41.072  1.00  0.00    -0.355 N 
ATOM      2  C   UNL     1      12.891 188.454  40.959  1.00  0.00     0.240 C 
ATOM      3  O   UNL     1      12.124 188.342  40.006  1.00  0.00    -0.273 OA
ATOM      4  H   UNL     1      14.546 187.774  41.980  1.00  0.00     0.163 HD
ENDROOT
BRANCH   1   5
ATOM      5  C   UNL     1      14.525 186.817  40.075  1.00  0.00     0.116 C 
BRANCH   5   6
ATOM      6  C   UNL     1      15.367 187.464  38.973  1.00  0.00     0.024 C 
BRANCH   6   7
ATOM      7  C   UNL     1      16.636 186.679  38.583  1.00  0.00    -0.016 C 
ATOM      8  C   UNL     1      16.966 185.660  39.678  1.00  0.00     0.007 C 
ATOM      9  C   UNL     1      17.841 187.592  38.351  1.00  0.00     0.007 C 
ENDBRANCH   6   7
ENDBRANCH   5   6
ENDBRANCH   1   5
BRANCH   2  10
ATOM     10  C   UNL     1      12.573 189.342  42.160  1.00  0.00     0.225 C 
BRANCH  10  11
ATOM     11  N   UNL     1      11.904 190.567  41.719  1.00  0.00    -0.304 N 
ATOM     12  C   UNL     1      12.665 191.634  41.274  1.00  0.00     0.107 A 
ATOM     13  C   UNL     1      10.510 190.592  41.714  1.00  0.00     0.260 A 
ATOM     14  C   UNL     1      12.127 192.787  40.851  1.00  0.00     0.060 A 
ATOM     15  C   UNL     1       9.871 191.852  41.275  1.00  0.00     0.067 A 
ATOM     16  O   UNL     1       9.817 189.627  42.031  1.00  0.00    -0.269 OA
ATOM     17  C   UNL     1      10.659 192.920  40.859  1.00  0.00     0.091 A 
ATOM     18  C   UNL     1       8.480 191.988  41.272  1.00  0.00     0.018 A 
ATOM     19  N   UNL     1      10.119 194.100  40.451  1.00  0.00    -0.255 NA
ATOM     20  C   UNL     1       7.919 193.189  40.853  1.00  0.00     0.021 A 
ATOM     21  C   UNL     1       8.771 194.207  40.456  1.00  0.00     0.112 A 
ATOM     22  Br  UNL     1      13.209 194.194  40.267  1.00  0.00    -0.047 Br
ENDBRANCH  10  11
ENDBRANCH   2  10
TORSDOF 5
ENDMDL
MODEL 7
REMARK VINA RESULT:      -5.6      3.061      6.208
REMARK SMILES CC(C)CCNC(=O)Cn1cc(Br)c2ncccc2c1=O
REMARK SMILES IDX 6 1 7 2 8 3 5 5 4 6 2 7 1 8 3 9 9 10 10 11 11 12 20 13 12 14
REMARK SMILES IDX 19 15 21 16 14 17 18 18 15 19 17 20 16 21 13 22
REMARK H PARENT 6 4
ROOT
ATOM      1  N   UNL     1      12.610 189.274  41.995  1.00  0.00    -0.355 N 
ATOM      2  C   UNL     1      11.405 189.587  41.398  1.00  0.00     0.240 C 
ATOM      3  O   UNL     1      11.016 189.090  40.344  1.00  0.00    -0.273 OA
ATOM      4  H   UNL     1      12.753 189.583  42.957  1.00  0.00     0.163 HD
ENDROOT
BRANCH   1   5
ATOM      5  C   UNL     1      13.520 188.297  41.439  1.00  0.00     0.116 C 
BRANCH   5   6
ATOM      6  C   UNL     1      14.541 188.916  40.482  1.00  0.00     0.024 C 
BRANCH   6   7
ATOM      7  C   UNL     1      14.706 188.172  39.142  1.00  0.00    -0.016 C 
ATOM      8  C   UNL     1      13.967 186.831  39.206  1.00  0.00     0.007 C 
ATOM      9  C   UNL     1      16.173 187.933  38.782  1.00  0.00     0.007 C 
ENDBRANCH   6   7
ENDBRANCH   5   6
ENDBRANCH   1   5
BRANCH   2  10
ATOM     10  C   UNL     1      10.560 190.579  42.192  1.00  0.00     0.225 C 
BRANCH  10  11
ATOM     11  N   UNL     1      10.402 191.824  41.439  1.00  0.00    -0.304 N 
ATOM     12  C   UNL     1      11.485 192.675  41.298  1.00  0.00     0.107 A 
ATOM     13  C   UNL     1       9.168 192.082  40.841  1.00  0.00     0.260 A 
ATOM     14  C   UNL     1      11.420 193.830  40.620  1.00  0.00     0.060 A 
ATOM     15  C   UNL     1       9.044 193.356  40.101  1.00  0.00     0.067 A 
ATOM     16  O   UNL     1       8.220 191.301  40.890  1.00  0.00    -0.269 OA
ATOM     17  C   UNL     1      10.139 194.208  39.997  1.00  0.00     0.091 A 
ATOM     18  C   UNL     1       7.836 193.722  39.499  1.00  0.00     0.018 A 
ATOM     19  N   UNL     1      10.073 195.391  39.330  1.00  0.00    -0.255 NA
ATOM     20  C   UNL     1       7.760 194.928  38.813  1.00  0.00     0.021 A 
ATOM     21  C   UNL     1       8.894 195.722  38.757  1.00  0.00     0.112 A 
ATOM     22  Br  UNL     1      12.917 194.939  40.470  1.00  0.00    -0.047 Br
ENDBRANCH  10  11
ENDBRANCH   2  10
TORSDOF 5
ENDMDL
MODEL 8
REMARK VINA RESULT:      -5.5      2.374      3.571
REMARK SMILES CC(C)CCNC(=O)Cn1cc(Br)c2ncccc2c1=O
REMARK SMILES IDX 6 1 7 2 8 3 5 5 4 6 2 7 1 8 3 9 9 10 10 11 11 12 20 13 12 14
REMARK SMILES IDX 19 15 21 16 14 17 18 18 15 19 17 20 16 21 13 22
REMARK H PARENT 6 4
ROOT
ATOM      1  N   UNL     1       8.163 192.269  41.530  1.00  0.00    -0.355 N 
ATOM      2  C   UNL     1       9.226 191.478  41.145  1.00  0.00     0.240 C 
ATOM      3  O   UNL     1       9.464 191.171  39.980  1.00  0.00    -0.273 OA
ATOM      4  H   UNL     1       8.165 192.628  42.484  1.00  0.00     0.163 HD
ENDROOT
BRANCH   1   5
ATOM      5  C   UNL     1       7.238 192.840  40.576  1.00  0.00     0.116 C 
BRANCH   5   6
ATOM      6  C   UNL     1       7.816 194.052  39.842  1.00  0.00     0.024 C 
BRANCH   6   7
ATOM      7  C   UNL     1       7.915 193.895  38.311  1.00  0.00    -0.016 C 
ATOM      8  C   UNL     1       7.571 195.226  37.637  1.00  0.00     0.007 C 
ATOM      9  C   UNL     1       6.998 192.795  37.775  1.00  0.00     0.007 C 
ENDBRANCH   6   7
ENDBRANCH   5   6
ENDBRANCH   1   5
BRANCH   2  10
ATOM     10  C   UNL     1      10.127 191.048  42.301  1.00  0.00     0.225 C 
BRANCH  10  11
ATOM     11  N   UNL     1      11.480 190.774  41.811  1.00  0.00    -0.304 N 
ATOM     12  C   UNL     1      12.425 191.784  41.826  1.00  0.00     0.107 A 
ATOM     13  C   UNL     1      11.780 189.477  41.394  1.00  0.00     0.260 A 
ATOM     14  C   UNL     1      13.684 191.610  41.398  1.00  0.00     0.060 A 
ATOM     15  C   UNL     1      13.151 189.243  40.893  1.00  0.00     0.067 A 
ATOM     16  O   UNL     1      10.975 188.549  41.447  1.00  0.00    -0.269 OA
ATOM     17  C   UNL     1      14.076 190.283  40.892  1.00  0.00     0.091 A 
ATOM     18  C   UNL     1      13.537 187.987  40.417  1.00  0.00     0.018 A 
ATOM     19  N   UNL     1      15.348 190.118  40.438  1.00  0.00    -0.255 NA
ATOM     20  C   UNL     1      14.836 187.808  39.953  1.00  0.00     0.021 A 
ATOM     21  C   UNL     1      15.697 188.894  39.983  1.00  0.00     0.112 A 
ATOM     22  Br  UNL     1      14.914 193.017  41.439  1.00  0.00    -0.047 Br
ENDBRANCH  10  11
ENDBRANCH   2  10
TORSDOF 5
ENDMDL
MODEL 9
REMARK VINA RESULT:      -5.5      2.725      3.722
REMARK SMILES CC(C)CCNC(=O)Cn1cc(Br)c2ncccc2c1=O
REMARK SMILES IDX 6 1 7 2 8 3 5 5 4 6 2 7 1 8 3 9 9 10 10 11 11 12 20 13 12 14
REMARK SMILES IDX 19 15 21 16 14 17 18 18 15 19 17 20 16 21 13 22
REMARK H PARENT 6 4
ROOT
ATOM      1  N   UNL     1       8.546 193.712  38.811  1.00  0.00    -0.355 N 
ATOM      2  C   UNL     1       8.154 193.172  40.019  1.00  0.00     0.240 C 
ATOM      3  O   UNL     1       7.085 193.428  40.567  1.00  0.00    -0.273 OA
ATOM      4  H   UNL     1       9.350 193.291  38.345  1.00  0.00     0.163 HD
ENDROOT
BRANCH   1   5
ATOM      5  C   UNL     1       7.707 194.619  38.058  1.00  0.00     0.116 C 
BRANCH   5   6
ATOM      6  C   UNL     1       8.285 196.033  37.980  1.00  0.00     0.024 C 
BRANCH   6   7
ATOM      7  C   UNL     1       9.822 196.112  38.072  1.00  0.00    -0.016 C 
ATOM      8  C   UNL     1      10.228 196.565  39.478  1.00  0.00     0.007 C 
ATOM      9  C   UNL     1      10.423 197.059  37.033  1.00  0.00     0.007 C 
ENDBRANCH   6   7
ENDBRANCH   5   6
ENDBRANCH   1   5
BRANCH   2  10
ATOM     10  C   UNL     1       9.151 192.175  40.603  1.00  0.00     0.225 C 
BRANCH  10  11
ATOM     11  N   UNL     1       9.657 192.662  41.888  1.00  0.00    -0.304 N 
ATOM     12  C   UNL     1       9.759 194.025  42.105  1.00  0.00     0.107 A 
ATOM     13  C   UNL     1       9.970 191.724  42.872  1.00  0.00     0.260 A 
ATOM     14  C   UNL     1      10.209 194.548  43.256  1.00  0.00     0.060 A 
ATOM     15  C   UNL     1      10.491 192.254  44.151  1.00  0.00     0.067 A 
ATOM     16  O   UNL     1       9.811 190.514  42.724  1.00  0.00    -0.269 OA
ATOM     17  C   UNL     1      10.611 193.628  44.335  1.00  0.00     0.091 A 
ATOM     18  C   UNL     1      10.868 191.392  45.184  1.00  0.00     0.018 A 
ATOM     19  N   UNL     1      11.088 194.163  45.490  1.00  0.00    -0.255 NA
ATOM     20  C   UNL     1      11.355 191.930  46.371  1.00  0.00     0.021 A 
ATOM     21  C   UNL     1      11.446 193.309  46.475  1.00  0.00     0.112 A 
ATOM     22  Br  UNL     1      10.328 196.399  43.486  1.00  0.00    -0.047 Br
ENDBRANCH  10  11
ENDBRANCH   2  10
TORSDOF 5
ENDMDL
MODEL 10
REMARK VINA RESULT:      -5.4      2.356      6.170
REMARK SMILES CC(C)CCNC(=O)Cn1cc(Br)c2ncccc2c1=O
REMARK SMILES IDX 6 1 7 2 8 3 5 5 4 6 2 7 1 8 3 9 9 10 10 11 11 12 20 13 12 14
REMARK SMILES IDX 19 15 21 16 14 17 18 18 15 19 17 20 16 21 13 22
REMARK H PARENT 6 4
ROOT
ATOM      1  N   UNL     1      11.440 191.211  43.195  1.00  0.00    -0.355 N 
ATOM      2  C   UNL     1      10.175 190.939  42.714  1.00  0.00     0.240 C 
ATOM      3  O   UNL     1       9.858 189.878  42.183  1.00  0.00    -0.273 OA
ATOM      4  H   UNL     1      11.552 192.031  43.791  1.00  0.00     0.163 HD
ENDROOT
BRANCH   1   5
ATOM      5  C   UNL     1      12.513 190.242  43.141  1.00  0.00     0.116 C 
BRANCH   5   6
ATOM      6  C   UNL     1      13.423 190.434  41.926  1.00  0.00     0.024 C 
BRANCH   6   7
ATOM      7  C   UNL     1      13.932 189.127  41.285  1.00  0.00    -0.016 C 
ATOM      8  C   UNL     1      15.086 189.441  40.329  1.00  0.00     0.007 C 
ATOM      9  C   UNL     1      12.831 188.376  40.534  1.00  0.00     0.007 C 
ENDBRANCH   6   7
ENDBRANCH   5   6
ENDBRANCH   1   5
BRANCH   2  10
ATOM     10  C   UNL     1       9.171 192.066  42.946  1.00  0.00     0.225 C 
BRANCH  10  11
ATOM     11  N   UNL     1       9.098 192.927  41.764  1.00  0.00    -0.304 N 
ATOM     12  C   UNL     1       9.947 194.015  41.662  1.00  0.00     0.107 A 
ATOM     13  C   UNL     1       8.202 192.582  40.751  1.00  0.00     0.260 A 
ATOM     14  C   UNL     1       9.942 194.848  40.610  1.00  0.00     0.060 A 
ATOM     15  C   UNL     1       8.147 193.484  39.580  1.00  0.00     0.067 A 
ATOM     16  O   UNL     1       7.497 191.576  40.789  1.00  0.00    -0.269 OA
ATOM     17  C   UNL     1       8.991 194.588  39.515  1.00  0.00     0.091 A 
ATOM     18  C   UNL     1       7.255 193.245  38.532  1.00  0.00     0.018 A 
ATOM     19  N   UNL     1       8.975 195.448  38.461  1.00  0.00    -0.255 NA
ATOM     20  C   UNL     1       7.233 194.117  37.449  1.00  0.00     0.021 A 
ATOM     21  C   UNL     1       8.104 195.195  37.459  1.00  0.00     0.112 A 
ATOM     22  Br  UNL     1      11.111 196.304  40.535  1.00  0.00    -0.047 Br
ENDBRANCH  10  11
ENDBRANCH   2  10
TORSDOF 5
ENDMDL
