MODEL 1
REMARK VINA RESULT:      -6.7      0.000      0.000
REMARK SMILES C/C=C\NC(=O)[C@H]1NC(=O)[C@H](CC(N)=O)CC(=O)[C@@H](NC(=O)C(=O)[C@@H](C)CC)Cc2ccc(O)c(c2)-c2cccc3c2NC(=O)[C@@]3(O)[C@@H]1O
REMARK SMILES IDX 37 1 38 2 39 3 40 4 41 5 42 6 43 7 44 8 45 9 46 10 48 12
REMARK SMILES IDX 7 13 5 14 4 15 6 16 3 18 2 19 1 20 8 21 9 22 10 23 11 25
REMARK SMILES IDX 12 26 13 27 14 28 15 29 16 32 17 33 18 34 49 36 47 38 35 40
REMARK SMILES IDX 33 41 36 42 32 43 30 44 31 45 34 46 29 48 19 49 20 51 21 52
REMARK SMILES IDX 22 53 23 55 24 56 25 57 26 58 27 59 28 60
REMARK H PARENT 43 11 4 17 8 24 14 30 14 31 49 37 47 39 34 47 20 54
REMARK Flexibility Score:   89.900
ROOT
ATOM      1  C   UNL     1      14.168 190.825  42.394  1.00  0.00     0.009 A 
ATOM      2  C   UNL     1      14.799 191.979  41.905  1.00  0.00     0.011 A 
ATOM      3  C   UNL     1      14.120 192.866  41.044  1.00  0.00     0.001 A 
ATOM      4  C   UNL     1      12.779 192.654  40.696  1.00  0.00     0.009 A 
ATOM      5  C   UNL     1      12.152 191.524  41.186  1.00  0.00     0.020 A 
ATOM      6  C   UNL     1      12.866 190.603  41.959  1.00  0.00     0.056 A 
ATOM      7  N   UNL     1      12.064 189.498  42.246  1.00  0.00    -0.322 N 
ATOM      8  C   UNL     1      10.820 189.625  41.651  1.00  0.00     0.263 C 
ATOM      9  O   UNL     1       9.964 188.766  41.558  1.00  0.00    -0.271 OA
ATOM     10  C   UNL     1      10.715 191.083  41.115  1.00  0.00     0.199 C 
ATOM     11  H   UNL     1      12.398 188.643  42.677  1.00  0.00     0.170 HD
ENDROOT
BRANCH  10  12
ATOM     12  C   UNL     1       9.733 191.842  42.065  1.00  0.00     0.192 C 
BRANCH  12  13
ATOM     13  C   UNL     1       9.507 193.351  41.748  1.00  0.00     0.204 C 
BRANCH  13  14
ATOM     14  C   UNL     1       8.276 193.617  40.858  1.00  0.00     0.249 C 
ATOM     15  N   UNL     1       8.554 194.118  39.605  1.00  0.00    -0.331 N 
ATOM     16  O   UNL     1       7.143 193.344  41.257  1.00  0.00    -0.272 OA
ATOM     17  H   UNL     1       9.529 194.317  39.389  1.00  0.00     0.169 HD
BRANCH  15  18
ATOM     18  C   UNL     1       7.603 194.318  38.642  1.00  0.00     0.081 C 
ATOM     19  C   UNL     1       7.265 193.416  37.715  1.00  0.00    -0.013 C 
ATOM     20  C   UNL     1       7.834 192.052  37.503  1.00  0.00     0.037 C 
ENDBRANCH  15  18
ENDBRANCH  13  14
BRANCH  13  21
ATOM     21  N   UNL     1       9.410 194.150  42.978  1.00  0.00    -0.342 N 
ATOM     22  C   UNL     1      10.352 194.834  43.677  1.00  0.00     0.224 C 
ATOM     23  O   UNL     1      10.079 195.123  44.849  1.00  0.00    -0.275 OA
ATOM     24  H   UNL     1       8.546 194.058  43.503  1.00  0.00     0.164 HD
BRANCH  22  25
ATOM     25  C   UNL     1      11.650 195.379  43.066  1.00  0.00     0.095 C 
BRANCH  25  26
ATOM     26  C   UNL     1      12.654 195.774  44.162  1.00  0.00     0.113 C 
BRANCH  26  27
ATOM     27  C   UNL     1      13.918 194.938  44.186  1.00  0.00     0.218 C 
ATOM     28  N   UNL     1      15.016 195.496  43.592  1.00  0.00    -0.370 N 
ATOM     29  O   UNL     1      13.978 193.840  44.727  1.00  0.00    -0.275 OA
ATOM     30  H   UNL     1      14.905 196.141  42.821  1.00  0.00     0.159 HD
ATOM     31  H   UNL     1      15.816 194.882  43.513  1.00  0.00     0.159 HD
ENDBRANCH  26  27
ENDBRANCH  25  26
BRANCH  25  32
ATOM     32  C   UNL     1      11.508 196.434  41.962  1.00  0.00     0.092 C 
BRANCH  32  33
ATOM     33  C   UNL     1      10.508 197.517  42.330  1.00  0.00     0.156 C
ATOM     34  O   UNL     1      10.798 198.350  43.190  1.00  0.00    -0.297 OA
ENDBRANCH  32  33
ENDBRANCH  25  32
ENDBRANCH  22  25
ENDBRANCH  13  21
ENDBRANCH  12  13
BRANCH  12  36
ATOM     36  O   UNL     1       8.479 191.139  42.216  1.00  0.00    -0.386 OA
ATOM     37  H   UNL     1       8.137 191.383  43.108  1.00  0.00     0.211 HD
ENDBRANCH  12  36
ENDBRANCH  10  12
BRANCH  10  38
ATOM     38  O   UNL     1      10.235 191.161  39.779  1.00  0.00    -0.373 OA
ATOM     39  H   UNL     1      10.489 190.321  39.342  1.00  0.00     0.212 HD
ENDBRANCH  10  38
BRANCH   1  40
ATOM     40  C   UNL     1      14.733 189.999  43.463  1.00  0.00     0.026 A 
ATOM     41  C   UNL     1      14.541 190.249  44.824  1.00  0.00     0.123 A 
ATOM     42  C   UNL     1      15.665 189.006  43.092  1.00  0.00     0.016 A 
ATOM     43  C   UNL     1      15.268 189.547  45.782  1.00  0.00     0.047 A 
ATOM     44  C   UNL     1      16.458 188.343  44.033  1.00  0.00    -0.045 A 
ATOM     45  C   UNL     1      16.226 188.608  45.389  1.00  0.00     0.007 A 
BRANCH  41  46
ATOM     46  O   UNL     1      13.673 191.199  45.285  1.00  0.00    -0.507 OA
ATOM     47  H   UNL     1      12.784 191.017  44.925  1.00  0.00     0.293 HD
ENDBRANCH  41  46
BRANCH  44  48
ATOM     48  C   UNL     1      17.509 187.314  43.654  1.00  0.00     0.068 C 
BRANCH  48  49
ATOM     49  C   UNL     1      17.084 186.084  42.824  1.00  0.00     0.153 C
BRANCH  49  51
ATOM     51  N   UNL     1      16.647 186.410  41.459  1.00  0.00    -0.339 N 
ATOM     52  C   UNL     1      15.570 185.820  40.825  1.00  0.00     0.288 C 
ATOM     53  O   UNL     1      14.656 185.207  41.350  1.00  0.00    -0.266 OA
ATOM     54  H   UNL     1      17.326 186.819  40.816  1.00  0.00     0.164 HD
BRANCH  52  55
ATOM     55  C   UNL     1      15.609 186.003  39.302  1.00  0.00     0.222 C 
ATOM     56  O   UNL     1      16.222 185.172  38.635  1.00  0.00    -0.288 OA
BRANCH  55  57
ATOM     57  C   UNL     1      14.892 187.213  38.737  1.00  0.00     0.063 C 
ATOM     58  C   UNL     1      13.724 187.567  39.655  1.00  0.00     0.016 C 
BRANCH  57  59
ATOM     59  C   UNL     1      15.845 188.414  38.586  1.00  0.00     0.008 C 
ATOM     60  C   UNL     1      17.285 187.983  38.346  1.00  0.00     0.004 C 
ENDBRANCH  57  59
ENDBRANCH  55  57
ENDBRANCH  52  55
ENDBRANCH  49  51
ENDBRANCH  48  49
ENDBRANCH  44  48
ENDBRANCH   1  40
TORSDOF 11
ENDMDL
MODEL 2
REMARK VINA RESULT:      -6.6      2.164      9.731
REMARK SMILES C/C=C\NC(=O)[C@H]1NC(=O)[C@H](CC(N)=O)CC(=O)[C@@H](NC(=O)C(=O)[C@@H](C)CC)Cc2ccc(O)c(c2)-c2cccc3c2NC(=O)[C@@]3(O)[C@@H]1O
REMARK SMILES IDX 37 1 38 2 39 3 40 4 41 5 42 6 43 7 44 8 45 9 46 10 48 12
REMARK SMILES IDX 7 13 5 14 4 15 6 16 3 18 2 19 1 20 8 21 9 22 10 23 11 25
REMARK SMILES IDX 12 26 13 27 14 28 15 29 16 32 17 33 18 34 49 36 47 38 35 40
REMARK SMILES IDX 33 41 36 42 32 43 30 44 31 45 34 46 29 48 19 49 20 51 21 52
REMARK SMILES IDX 22 53 23 55 24 56 25 57 26 58 27 59 28 60
REMARK H PARENT 43 11 4 17 8 24 14 30 14 31 49 37 47 39 34 47 20 54
REMARK Flexibility Score:   89.900
ROOT
ATOM      1  C   UNL     1       9.939 192.244  42.514  1.00  0.00     0.009 A 
ATOM      2  C   UNL     1      10.013 192.729  43.829  1.00  0.00     0.011 A 
ATOM      3  C   UNL     1      10.927 192.181  44.753  1.00  0.00     0.001 A 
ATOM      4  C   UNL     1      11.827 191.177  44.373  1.00  0.00     0.009 A 
ATOM      5  C   UNL     1      11.764 190.706  43.075  1.00  0.00     0.020 A 
ATOM      6  C   UNL     1      10.789 191.189  42.198  1.00  0.00     0.056 A 
ATOM      7  N   UNL     1      10.848 190.495  40.989  1.00  0.00    -0.322 N 
ATOM      8  C   UNL     1      11.824 189.514  41.032  1.00  0.00     0.263 C 
ATOM      9  O   UNL     1      12.006 188.629  40.218  1.00  0.00    -0.271 OA
ATOM     10  C   UNL     1      12.655 189.752  42.327  1.00  0.00     0.199 C 
ATOM     11  H   UNL     1      10.160 190.574  40.247  1.00  0.00     0.170 HD
ENDROOT
BRANCH  10  12
ATOM     12  C   UNL     1      14.034 190.336  41.876  1.00  0.00     0.192 C 
BRANCH  12  13
ATOM     13  C   UNL     1      15.195 189.308  41.729  1.00  0.00     0.204 C 
BRANCH  13  14
ATOM     14  C   UNL     1      16.109 189.228  42.969  1.00  0.00     0.249 C 
ATOM     15  N   UNL     1      15.561 188.596  44.064  1.00  0.00    -0.331 N 
ATOM     16  O   UNL     1      17.260 189.666  42.927  1.00  0.00    -0.272 OA
ATOM     17  H   UNL     1      14.595 188.284  43.985  1.00  0.00     0.169 HD
BRANCH  15  18
ATOM     18  C   UNL     1      16.256 188.339  45.214  1.00  0.00     0.081 C 
ATOM     19  C   UNL     1      15.823 188.642  46.442  1.00  0.00    -0.013 C 
ATOM     20  C   UNL     1      14.553 189.324  46.831  1.00  0.00     0.037 C 
ENDBRANCH  15  18
ENDBRANCH  13  14
BRANCH  13  21
ATOM     21  N   UNL     1      14.690 187.967  41.401  1.00  0.00    -0.342 N 
ATOM     22  C   UNL     1      15.157 187.019  40.549  1.00  0.00     0.224 C 
ATOM     23  O   UNL     1      14.361 186.137  40.201  1.00  0.00    -0.275 OA
ATOM     24  H   UNL     1      13.751 187.753  41.721  1.00  0.00     0.164 HD
BRANCH  22  25
ATOM     25  C   UNL     1      16.624 186.902  40.111  1.00  0.00     0.095 C 
BRANCH  25  26
ATOM     26  C   UNL     1      16.755 187.001  38.583  1.00  0.00     0.113 C 
BRANCH  26  27
ATOM     27  C   UNL     1      17.679 188.102  38.101  1.00  0.00     0.218 C 
ATOM     28  N   UNL     1      18.875 187.694  37.578  1.00  0.00    -0.370 N 
ATOM     29  O   UNL     1      17.378 189.289  38.145  1.00  0.00    -0.275 OA
ATOM     30  H   UNL     1      19.306 186.838  37.901  1.00  0.00     0.159 HD
ATOM     31  H   UNL     1      19.526 188.439  37.370  1.00  0.00     0.159 HD
ENDBRANCH  26  27
ENDBRANCH  25  26
BRANCH  25  32
ATOM     32  C   UNL     1      17.440 185.754  40.719  1.00  0.00     0.092 C 
BRANCH  32  33
ATOM     33  C   UNL     1      17.536 185.861  42.233  1.00  0.00     0.156 C
ATOM     34  O   UNL     1      17.144 184.930  42.937  1.00  0.00    -0.297 OA
ENDBRANCH  32  33
ENDBRANCH  25  32
ENDBRANCH  22  25
ENDBRANCH  13  21
ENDBRANCH  12  13
BRANCH  12  36
ATOM     36  O   UNL     1      13.908 191.165  40.698  1.00  0.00    -0.386 OA
ATOM     37  H   UNL     1      14.117 190.581  39.932  1.00  0.00     0.211 HD
ENDBRANCH  12  36
ENDBRANCH  10  12
BRANCH  10  38
ATOM     38  O   UNL     1      12.870 188.569  43.086  1.00  0.00    -0.373 OA
ATOM     39  H   UNL     1      12.787 188.825  44.029  1.00  0.00     0.212 HD
ENDBRANCH  10  38
BRANCH   1  40
ATOM     40  C   UNL     1       9.185 192.919  41.456  1.00  0.00     0.026 A 
ATOM     41  C   UNL     1       7.936 192.495  40.998  1.00  0.00     0.123 A 
ATOM     42  C   UNL     1       9.842 193.947  40.747  1.00  0.00     0.016 A 
ATOM     43  C   UNL     1       7.369 193.062  39.859  1.00  0.00     0.047 A 
ATOM     44  C   UNL     1       9.326 194.478  39.560  1.00  0.00    -0.045 A 
ATOM     45  C   UNL     1       8.064 194.039  39.140  1.00  0.00     0.007 A 
BRANCH  41  46
ATOM     46  O   UNL     1       7.226 191.498  41.606  1.00  0.00    -0.507 OA
ATOM     47  H   UNL     1       6.273 191.690  41.520  1.00  0.00     0.293 HD
ENDBRANCH  41  46
BRANCH  44  48
ATOM     48  C   UNL     1      10.044 195.541  38.747  1.00  0.00     0.068 C 
BRANCH  48  49
ATOM     49  C   UNL     1      10.106 196.984  39.295  1.00  0.00     0.153 C
BRANCH  49  51
ATOM     51  N   UNL     1      10.476 197.064  40.716  1.00  0.00    -0.339 N 
ATOM     52  C   UNL     1      10.702 198.246  41.395  1.00  0.00     0.288 C 
ATOM     53  O   UNL     1      10.349 199.364  41.059  1.00  0.00    -0.266 OA
ATOM     54  H   UNL     1      10.915 196.252  41.150  1.00  0.00     0.164 HD
BRANCH  52  55
ATOM     55  C   UNL     1      11.488 198.038  42.696  1.00  0.00     0.222 C 
ATOM     56  O   UNL     1      11.181 198.717  43.673  1.00  0.00    -0.288 OA
BRANCH  55  57
ATOM     57  C   UNL     1      12.599 197.007  42.668  1.00  0.00     0.063 C 
ATOM     58  C   UNL     1      13.765 197.515  43.511  1.00  0.00     0.016 C 
BRANCH  57  59
ATOM     59  C   UNL     1      12.113 195.640  43.185  1.00  0.00     0.008 C 
ATOM     60  C   UNL     1      13.237 194.821  43.803  1.00  0.00     0.004 C 
ENDBRANCH  57  59
ENDBRANCH  55  57
ENDBRANCH  52  55
ENDBRANCH  49  51
ENDBRANCH  48  49
ENDBRANCH  44  48
ENDBRANCH   1  40
TORSDOF 11
ENDMDL
MODEL 3
REMARK VINA RESULT:      -6.6      2.486      8.256
REMARK SMILES C/C=C\NC(=O)[C@H]1NC(=O)[C@H](CC(N)=O)CC(=O)[C@@H](NC(=O)C(=O)[C@@H](C)CC)Cc2ccc(O)c(c2)-c2cccc3c2NC(=O)[C@@]3(O)[C@@H]1O
REMARK SMILES IDX 37 1 38 2 39 3 40 4 41 5 42 6 43 7 44 8 45 9 46 10 48 12
REMARK SMILES IDX 7 13 5 14 4 15 6 16 3 18 2 19 1 20 8 21 9 22 10 23 11 25
REMARK SMILES IDX 12 26 13 27 14 28 15 29 16 32 17 33 18 34 49 36 47 38 35 40
REMARK SMILES IDX 33 41 36 42 32 43 30 44 31 45 34 46 29 48 19 49 20 51 21 52
REMARK SMILES IDX 22 53 23 55 24 56 25 57 26 58 27 59 28 60
REMARK H PARENT 43 11 4 17 8 24 14 30 14 31 49 37 47 39 34 47 20 54
REMARK Flexibility Score:   89.900
ROOT
ATOM      1  C   UNL     1       9.847 192.368  42.585  1.00  0.00     0.009 A 
ATOM      2  C   UNL     1       9.866 192.828  43.911  1.00  0.00     0.011 A 
ATOM      3  C   UNL     1      10.784 192.305  44.845  1.00  0.00     0.001 A 
ATOM      4  C   UNL     1      11.742 191.356  44.468  1.00  0.00     0.009 A 
ATOM      5  C   UNL     1      11.733 190.910  43.159  1.00  0.00     0.020 A 
ATOM      6  C   UNL     1      10.756 191.365  42.268  1.00  0.00     0.056 A 
ATOM      7  N   UNL     1      10.878 190.701  41.046  1.00  0.00    -0.322 N 
ATOM      8  C   UNL     1      11.900 189.768  41.093  1.00  0.00     0.263 C 
ATOM      9  O   UNL     1      12.145 188.911  40.267  1.00  0.00    -0.271 OA
ATOM     10  C   UNL     1      12.688 190.019  42.413  1.00  0.00     0.199 C 
ATOM     11  H   UNL     1      10.204 190.762  40.290  1.00  0.00     0.170 HD
ENDROOT
BRANCH  10  12
ATOM     12  C   UNL     1      14.046 190.680  42.008  1.00  0.00     0.192 C 
BRANCH  12  13
ATOM     13  C   UNL     1      15.297 189.753  42.056  1.00  0.00     0.204 C 
BRANCH  13  14
ATOM     14  C   UNL     1      15.742 189.243  40.670  1.00  0.00     0.249 C 
ATOM     15  N   UNL     1      15.003 188.196  40.164  1.00  0.00    -0.331 N 
ATOM     16  O   UNL     1      16.667 189.791  40.069  1.00  0.00    -0.272 OA
ATOM     17  H   UNL     1      14.268 187.815  40.757  1.00  0.00     0.169 HD
BRANCH  15  18
ATOM     18  C   UNL     1      15.182 187.681  38.908  1.00  0.00     0.081 C 
ATOM     19  C   UNL     1      15.930 186.609  38.631  1.00  0.00    -0.013 C 
ATOM     20  C   UNL     1      16.730 185.772  39.575  1.00  0.00     0.037 C 
ENDBRANCH  15  18
ENDBRANCH  13  14
BRANCH  13  21
ATOM     21  N   UNL     1      16.428 190.409  42.727  1.00  0.00    -0.342 N 
ATOM     22  C   UNL     1      16.701 190.593  44.044  1.00  0.00     0.224 C 
ATOM     23  O   UNL     1      17.525 191.473  44.327  1.00  0.00    -0.275 OA
ATOM     24  H   UNL     1      17.033 190.970  42.136  1.00  0.00     0.164 HD
BRANCH  22  25
ATOM     25  C   UNL     1      16.164 189.698  45.169  1.00  0.00     0.095 C 
BRANCH  25  26
ATOM     26  C   UNL     1      16.297 188.211  44.805  1.00  0.00     0.113 C 
BRANCH  26  27
ATOM     27  C   UNL     1      17.072 187.385  45.813  1.00  0.00     0.218 C 
ATOM     28  N   UNL     1      16.904 186.030  45.732  1.00  0.00    -0.370 N 
ATOM     29  O   UNL     1      17.830 187.882  46.637  1.00  0.00    -0.275 OA
ATOM     30  H   UNL     1      16.032 185.645  45.393  1.00  0.00     0.159 HD
ATOM     31  H   UNL     1      17.333 185.502  46.480  1.00  0.00     0.159 HD
ENDBRANCH  26  27
ENDBRANCH  25  26
BRANCH  25  32
ATOM     32  C   UNL     1      14.791 190.062  45.749  1.00  0.00     0.092 C 
BRANCH  32  33
ATOM     33  C   UNL     1      14.857 191.281  46.655  1.00  0.00     0.156 C
ATOM     34  O   UNL     1      13.857 191.631  47.283  1.00  0.00    -0.297 OA
ENDBRANCH  32  33
ENDBRANCH  25  32
ENDBRANCH  22  25
ENDBRANCH  13  21
ENDBRANCH  12  13
BRANCH  12  36
ATOM     36  O   UNL     1      13.950 191.375  40.744  1.00  0.00    -0.386 OA
ATOM     37  H   UNL     1      14.154 190.706  40.050  1.00  0.00     0.211 HD
ENDBRANCH  12  36
ENDBRANCH  10  12
BRANCH  10  38
ATOM     38  O   UNL     1      12.943 188.832  43.153  1.00  0.00    -0.373 OA
ATOM     39  H   UNL     1      12.119 188.626  43.642  1.00  0.00     0.212 HD
ENDBRANCH  10  38
BRANCH   1  40
ATOM     40  C   UNL     1       9.086 193.029  41.523  1.00  0.00     0.026 A 
ATOM     41  C   UNL     1       7.918 192.506  40.962  1.00  0.00     0.123 A 
ATOM     42  C   UNL     1       9.665 194.165  40.920  1.00  0.00     0.016 A 
ATOM     43  C   UNL     1       7.359 193.084  39.824  1.00  0.00     0.047 A 
ATOM     44  C   UNL     1       9.163 194.716  39.736  1.00  0.00    -0.045 A 
ATOM     45  C   UNL     1       7.983 194.174  39.211  1.00  0.00     0.007 A 
BRANCH  41  46
ATOM     46  O   UNL     1       7.288 191.401  41.462  1.00  0.00    -0.507 OA
ATOM     47  H   UNL     1       7.454 191.350  42.423  1.00  0.00     0.293 HD
ENDBRANCH  41  46
BRANCH  44  48
ATOM     48  C   UNL     1       9.805 195.901  39.035  1.00  0.00     0.068 C 
BRANCH  48  49
ATOM     49  C   UNL     1      11.267 195.780  38.555  1.00  0.00     0.153 C
BRANCH  49  51
ATOM     51  N   UNL     1      12.260 195.943  39.627  1.00  0.00    -0.339 N 
ATOM     52  C   UNL     1      13.196 194.986  39.971  1.00  0.00     0.288 C 
ATOM     53  O   UNL     1      13.560 194.039  39.295  1.00  0.00    -0.266 OA
ATOM     54  H   UNL     1      12.066 196.612  40.372  1.00  0.00     0.164 HD
BRANCH  52  55
ATOM     55  C   UNL     1      13.788 195.216  41.369  1.00  0.00     0.222 C 
ATOM     56  O   UNL     1      14.842 195.842  41.455  1.00  0.00    -0.288 OA
BRANCH  55  57
ATOM     57  C   UNL     1      13.021 194.637  42.541  1.00  0.00     0.063 C 
ATOM     58  C   UNL     1      14.015 194.036  43.531  1.00  0.00     0.016 C 
BRANCH  57  59
ATOM     59  C   UNL     1      12.151 195.706  43.229  1.00  0.00     0.008 C 
ATOM     60  C   UNL     1      12.263 195.655  44.746  1.00  0.00     0.004 C 
ENDBRANCH  57  59
ENDBRANCH  55  57
ENDBRANCH  52  55
ENDBRANCH  49  51
ENDBRANCH  48  49
ENDBRANCH  44  48
ENDBRANCH   1  40
TORSDOF 11
ENDMDL
MODEL 4
REMARK VINA RESULT:      -6.5      2.472      8.523
REMARK SMILES C/C=C\NC(=O)[C@H]1NC(=O)[C@H](CC(N)=O)CC(=O)[C@@H](NC(=O)C(=O)[C@@H](C)CC)Cc2ccc(O)c(c2)-c2cccc3c2NC(=O)[C@@]3(O)[C@@H]1O
REMARK SMILES IDX 37 1 38 2 39 3 40 4 41 5 42 6 43 7 44 8 45 9 46 10 48 12
REMARK SMILES IDX 7 13 5 14 4 15 6 16 3 18 2 19 1 20 8 21 9 22 10 23 11 25
REMARK SMILES IDX 12 26 13 27 14 28 15 29 16 32 17 33 18 34 49 36 47 38 35 40
REMARK SMILES IDX 33 41 36 42 32 43 30 44 31 45 34 46 29 48 19 49 20 51 21 52
REMARK SMILES IDX 22 53 23 55 24 56 25 57 26 58 27 59 28 60
REMARK H PARENT 43 11 4 17 8 24 14 30 14 31 49 37 47 39 34 47 20 54
REMARK Flexibility Score:   89.900
ROOT
ATOM      1  C   UNL     1      10.395 191.978  42.880  1.00  0.00     0.009 A 
ATOM      2  C   UNL     1      10.508 192.305  44.241  1.00  0.00     0.011 A 
ATOM      3  C   UNL     1      11.439 191.644  45.069  1.00  0.00     0.001 A 
ATOM      4  C   UNL     1      12.318 190.684  44.551  1.00  0.00     0.009 A 
ATOM      5  C   UNL     1      12.217 190.370  43.209  1.00  0.00     0.020 A 
ATOM      6  C   UNL     1      11.225 190.962  42.420  1.00  0.00     0.056 A 
ATOM      7  N   UNL     1      11.245 190.414  41.137  1.00  0.00    -0.322 N 
ATOM      8  C   UNL     1      12.210 189.426  41.039  1.00  0.00     0.263 C 
ATOM      9  O   UNL     1      12.362 188.641  40.122  1.00  0.00    -0.271 OA
ATOM     10  C   UNL     1      13.077 189.504  42.330  1.00  0.00     0.199 C 
ATOM     11  H   UNL     1      10.539 190.585  40.429  1.00  0.00     0.170 HD
ENDROOT
BRANCH  10  12
ATOM     12  C   UNL     1      14.450 190.125  41.914  1.00  0.00     0.192 C 
BRANCH  12  13
ATOM     13  C   UNL     1      15.714 189.280  42.256  1.00  0.00     0.204 C 
BRANCH  13  14
ATOM     14  C   UNL     1      16.799 189.320  41.161  1.00  0.00     0.249 C 
ATOM     15  N   UNL     1      16.467 188.691  39.981  1.00  0.00    -0.331 N 
ATOM     16  O   UNL     1      17.856 189.924  41.349  1.00  0.00    -0.272 OA
ATOM     17  H   UNL     1      15.568 188.213  39.945  1.00  0.00     0.169 HD
BRANCH  15  18
ATOM     18  C   UNL     1      17.257 188.712  38.864  1.00  0.00     0.081 C 
ATOM     19  C   UNL     1      17.833 187.632  38.325  1.00  0.00    -0.013 C 
ATOM     20  C   UNL     1      17.773 186.219  38.803  1.00  0.00     0.037 C 
ENDBRANCH  15  18
ENDBRANCH  13  14
BRANCH  13  21
ATOM     21  N   UNL     1      16.297 189.681  43.544  1.00  0.00    -0.342 N 
ATOM     22  C   UNL     1      16.647 190.901  44.026  1.00  0.00     0.224 C 
ATOM     23  O   UNL     1      17.431 190.920  44.984  1.00  0.00    -0.275 OA
ATOM     24  H   UNL     1      16.662 188.930  44.121  1.00  0.00     0.164 HD
BRANCH  22  25
ATOM     25  C   UNL     1      16.029 192.223  43.552  1.00  0.00     0.095 C 
BRANCH  25  26
ATOM     26  C   UNL     1      17.097 193.145  42.941  1.00  0.00     0.113 C 
BRANCH  26  27
ATOM     27  C   UNL     1      16.992 193.318  41.439  1.00  0.00     0.218 C 
ATOM     28  N   UNL     1      18.073 193.889  40.825  1.00  0.00    -0.370 N 
ATOM     29  O   UNL     1      16.018 192.948  40.794  1.00  0.00    -0.275 OA
ATOM     30  H   UNL     1      18.652 194.549  41.326  1.00  0.00     0.159 HD
ATOM     31  H   UNL     1      17.943 194.104  39.845  1.00  0.00     0.159 HD
ENDBRANCH  26  27
ENDBRANCH  25  26
BRANCH  25  32
ATOM     32  C   UNL     1      15.093 192.942  44.532  1.00  0.00     0.092 C 
BRANCH  32  33
ATOM     33  C   UNL     1      14.343 194.088  43.871  1.00  0.00     0.156 C
ATOM     34  O   UNL     1      13.411 193.846  43.104  1.00  0.00    -0.297 OA
ENDBRANCH  32  33
ENDBRANCH  25  32
ENDBRANCH  22  25
ENDBRANCH  13  21
ENDBRANCH  12  13
BRANCH  12  36
ATOM     36  O   UNL     1      14.453 190.547  40.531  1.00  0.00    -0.386 OA
ATOM     37  H   UNL     1      13.706 191.184  40.440  1.00  0.00     0.211 HD
ENDBRANCH  12  36
ENDBRANCH  10  12
BRANCH  10  38
ATOM     38  O   UNL     1      13.298 188.238  42.940  1.00  0.00    -0.373 OA
ATOM     39  H   UNL     1      13.583 187.631  42.225  1.00  0.00     0.212 HD
ENDBRANCH  10  38
BRANCH   1  40
ATOM     40  C   UNL     1       9.622 192.780  41.930  1.00  0.00     0.026 A 
ATOM     41  C   UNL     1       8.304 192.497  41.564  1.00  0.00     0.123 A 
ATOM     42  C   UNL     1      10.311 193.785  41.218  1.00  0.00     0.016 A 
ATOM     43  C   UNL     1       7.700 193.178  40.510  1.00  0.00     0.047 A 
ATOM     44  C   UNL     1       9.750 194.429  40.111  1.00  0.00    -0.045 A 
ATOM     45  C   UNL     1       8.421 194.130  39.783  1.00  0.00     0.007 A 
BRANCH  41  46
ATOM     46  O   UNL     1       7.557 191.533  42.181  1.00  0.00    -0.507 OA
ATOM     47  H   UNL     1       6.822 191.961  42.659  1.00  0.00     0.293 HD
ENDBRANCH  41  46
BRANCH  44  48
ATOM     48  C   UNL     1      10.493 195.470  39.292  1.00  0.00     0.068 C 
BRANCH  48  49
ATOM     49  C   UNL     1      10.454 196.944  39.748  1.00  0.00     0.153 C
BRANCH  49  51
ATOM     51  N   UNL     1      10.181 197.116  41.182  1.00  0.00    -0.339 N 
ATOM     52  C   UNL     1      11.130 196.978  42.177  1.00  0.00     0.288 C 
ATOM     53  O   UNL     1      12.342 197.008  42.043  1.00  0.00    -0.266 OA
ATOM     54  H   UNL     1       9.223 196.996  41.512  1.00  0.00     0.164 HD
BRANCH  52  55
ATOM     55  C   UNL     1      10.506 196.767  43.563  1.00  0.00     0.222 C 
ATOM     56  O   UNL     1       9.283 196.836  43.663  1.00  0.00    -0.288 OA
BRANCH  55  57
ATOM     57  C   UNL     1      11.459 196.498  44.710  1.00  0.00     0.063 C 
ATOM     58  C   UNL     1      11.844 197.827  45.353  1.00  0.00     0.016 C 
BRANCH  57  59
ATOM     59  C   UNL     1      10.833 195.553  45.753  1.00  0.00     0.008 C 
ATOM     60  C   UNL     1      11.879 194.907  46.651  1.00  0.00     0.004 C 
ENDBRANCH  57  59
ENDBRANCH  55  57
ENDBRANCH  52  55
ENDBRANCH  49  51
ENDBRANCH  48  49
ENDBRANCH  44  48
ENDBRANCH   1  40
TORSDOF 11
ENDMDL
MODEL 5
REMARK VINA RESULT:      -6.5      4.774      8.931
REMARK SMILES C/C=C\NC(=O)[C@H]1NC(=O)[C@H](CC(N)=O)CC(=O)[C@@H](NC(=O)C(=O)[C@@H](C)CC)Cc2ccc(O)c(c2)-c2cccc3c2NC(=O)[C@@]3(O)[C@@H]1O
REMARK SMILES IDX 37 1 38 2 39 3 40 4 41 5 42 6 43 7 44 8 45 9 46 10 48 12
REMARK SMILES IDX 7 13 5 14 4 15 6 16 3 18 2 19 1 20 8 21 9 22 10 23 11 25
REMARK SMILES IDX 12 26 13 27 14 28 15 29 16 32 17 33 18 34 49 36 47 38 35 40
REMARK SMILES IDX 33 41 36 42 32 43 30 44 31 45 34 46 29 48 19 49 20 51 21 52
REMARK SMILES IDX 22 53 23 55 24 56 25 57 26 58 27 59 28 60
REMARK H PARENT 43 11 4 17 8 24 14 30 14 31 49 37 47 39 34 47 20 54
REMARK Flexibility Score:   89.900
ROOT
ATOM      1  C   UNL     1      11.759 194.970  41.454  1.00  0.00     0.009 A 
ATOM      2  C   UNL     1      12.238 195.681  42.566  1.00  0.00     0.011 A 
ATOM      3  C   UNL     1      12.487 197.067  42.487  1.00  0.00     0.001 A 
ATOM      4  C   UNL     1      12.213 197.787  41.317  1.00  0.00     0.009 A 
ATOM      5  C   UNL     1      11.730 197.091  40.225  1.00  0.00     0.020 A 
ATOM      6  C   UNL     1      11.578 195.702  40.286  1.00  0.00     0.056 A 
ATOM      7  N   UNL     1      11.185 195.210  39.041  1.00  0.00    -0.322 N 
ATOM      8  C   UNL     1      11.100 196.232  38.112  1.00  0.00     0.263 C 
ATOM      9  O   UNL     1      10.960 196.117  36.909  1.00  0.00    -0.271 OA
ATOM     10  C   UNL     1      11.218 197.573  38.894  1.00  0.00     0.199 C 
ATOM     11  H   UNL     1      11.141 194.224  38.802  1.00  0.00     0.170 HD
ENDROOT
BRANCH  10  12
ATOM     12  C   UNL     1       9.790 198.209  38.916  1.00  0.00     0.192 C 
BRANCH  12  13
ATOM     13  C   UNL     1       9.544 199.368  37.904  1.00  0.00     0.204 C 
BRANCH  13  14
ATOM     14  C   UNL     1      10.158 200.713  38.344  1.00  0.00     0.249 C 
ATOM     15  N   UNL     1       9.581 201.288  39.454  1.00  0.00    -0.331 N 
ATOM     16  O   UNL     1      11.128 201.183  37.747  1.00  0.00    -0.272 OA
ATOM     17  H   UNL     1       8.775 200.813  39.858  1.00  0.00     0.169 HD
BRANCH  15  18
ATOM     18  C   UNL     1      10.055 202.424  40.051  1.00  0.00     0.081 C 
ATOM     19  C   UNL     1      10.988 202.441  41.009  1.00  0.00    -0.013 C 
ATOM     20  C   UNL     1      11.683 201.280  41.641  1.00  0.00     0.037 C 
ENDBRANCH  15  18
ENDBRANCH  13  14
BRANCH  13  21
ATOM     21  N   UNL     1      10.027 199.021  36.559  1.00  0.00    -0.342 N 
ATOM     22  C   UNL     1       9.357 198.666  35.433  1.00  0.00     0.224 C 
ATOM     23  O   UNL     1      10.010 198.091  34.552  1.00  0.00    -0.275 OA
ATOM     24  H   UNL     1      11.023 198.849  36.474  1.00  0.00     0.164 HD
BRANCH  22  25
ATOM     25  C   UNL     1       7.902 199.052  35.138  1.00  0.00     0.095 C 
BRANCH  25  26
ATOM     26  C   UNL     1       6.926 198.002  35.693  1.00  0.00     0.113 C 
BRANCH  26  27
ATOM     27  C   UNL     1       5.991 198.519  36.769  1.00  0.00     0.218 C 
ATOM     28  N   UNL     1       6.196 198.025  38.028  1.00  0.00    -0.370 N 
ATOM     29  O   UNL     1       5.119 199.350  36.548  1.00  0.00    -0.275 OA
ATOM     30  H   UNL     1       6.576 197.096  38.154  1.00  0.00     0.159 HD
ATOM     31  H   UNL     1       5.495 198.288  38.708  1.00  0.00     0.159 HD
ENDBRANCH  26  27
ENDBRANCH  25  26
BRANCH  25  32
ATOM     32  C   UNL     1       7.576 199.487  33.704  1.00  0.00     0.092 C 
BRANCH  32  33
ATOM     33  C   UNL     1       6.901 198.380  32.910  1.00  0.00     0.156 C
ATOM     34  O   UNL     1       7.522 197.803  32.016  1.00  0.00    -0.297 OA
ENDBRANCH  32  33
ENDBRANCH  25  32
ENDBRANCH  22  25
ENDBRANCH  13  21
ENDBRANCH  12  13
BRANCH  12  36
ATOM     36  O   UNL     1       8.752 197.206  38.834  1.00  0.00    -0.386 OA
ATOM     37  H   UNL     1       8.360 197.293  37.934  1.00  0.00     0.211 HD
ENDBRANCH  12  36
ENDBRANCH  10  12
BRANCH  10  38
ATOM     38  O   UNL     1      12.134 198.490  38.310  1.00  0.00    -0.373 OA
ATOM     39  H   UNL     1      12.454 198.074  37.481  1.00  0.00     0.212 HD
ENDBRANCH  10  38
BRANCH   1  40
ATOM     40  C   UNL     1      11.264 193.595  41.540  1.00  0.00     0.026 A 
ATOM     41  C   UNL     1      11.989 192.479  41.114  1.00  0.00     0.123 A 
ATOM     42  C   UNL     1       9.915 193.412  41.911  1.00  0.00     0.016 A 
ATOM     43  C   UNL     1      11.383 191.227  41.040  1.00  0.00     0.047 A 
ATOM     44  C   UNL     1       9.267 192.180  41.774  1.00  0.00    -0.045 A 
ATOM     45  C   UNL     1      10.029 191.081  41.357  1.00  0.00     0.007 A 
BRANCH  41  46
ATOM     46  O   UNL     1      13.296 192.553  40.721  1.00  0.00    -0.507 OA
ATOM     47  H   UNL     1      13.712 193.324  41.150  1.00  0.00     0.293 HD
ENDBRANCH  41  46
BRANCH  44  48
ATOM     48  C   UNL     1       7.800 191.974  42.108  1.00  0.00     0.068 C 
BRANCH  48  49
ATOM     49  C   UNL     1       6.734 192.360  41.059  1.00  0.00     0.153 C
BRANCH  49  51
ATOM     51  N   UNL     1       7.232 192.355  39.676  1.00  0.00    -0.339 N 
ATOM     52  C   UNL     1       7.590 193.491  38.975  1.00  0.00     0.288 C 
ATOM     53  O   UNL     1       7.850 194.588  39.439  1.00  0.00    -0.266 OA
ATOM     54  H   UNL     1       7.000 191.562  39.079  1.00  0.00     0.164 HD
BRANCH  52  55
ATOM     55  C   UNL     1       7.640 193.257  37.459  1.00  0.00     0.222 C 
ATOM     56  O   UNL     1       8.413 193.942  36.793  1.00  0.00    -0.288 OA
BRANCH  55  57
ATOM     57  C   UNL     1       6.713 192.197  36.898  1.00  0.00     0.063 C 
ATOM     58  C   UNL     1       5.430 192.867  36.417  1.00  0.00     0.016 C 
BRANCH  57  59
ATOM     59  C   UNL     1       7.380 191.416  35.750  1.00  0.00     0.008 C 
ATOM     60  C   UNL     1       8.432 190.436  36.250  1.00  0.00     0.004 C 
ENDBRANCH  57  59
ENDBRANCH  55  57
ENDBRANCH  52  55
ENDBRANCH  49  51
ENDBRANCH  48  49
ENDBRANCH  44  48
ENDBRANCH   1  40
TORSDOF 11
ENDMDL
MODEL 6
REMARK VINA RESULT:      -6.4      3.496      9.789
REMARK SMILES C/C=C\NC(=O)[C@H]1NC(=O)[C@H](CC(N)=O)CC(=O)[C@@H](NC(=O)C(=O)[C@@H](C)CC)Cc2ccc(O)c(c2)-c2cccc3c2NC(=O)[C@@]3(O)[C@@H]1O
REMARK SMILES IDX 37 1 38 2 39 3 40 4 41 5 42 6 43 7 44 8 45 9 46 10 48 12
REMARK SMILES IDX 7 13 5 14 4 15 6 16 3 18 2 19 1 20 8 21 9 22 10 23 11 25
REMARK SMILES IDX 12 26 13 27 14 28 15 29 16 32 17 33 18 34 49 36 47 38 35 40
REMARK SMILES IDX 33 41 36 42 32 43 30 44 31 45 34 46 29 48 19 49 20 51 21 52
REMARK SMILES IDX 22 53 23 55 24 56 25 57 26 58 27 59 28 60
REMARK H PARENT 43 11 4 17 8 24 14 30 14 31 49 37 47 39 34 47 20 54
REMARK Flexibility Score:   89.900
ROOT
ATOM      1  C   UNL     1       9.884 192.244  42.567  1.00  0.00     0.009 A 
ATOM      2  C   UNL     1      10.063 192.807  43.840  1.00  0.00     0.011 A 
ATOM      3  C   UNL     1      11.066 192.329  44.709  1.00  0.00     0.001 A 
ATOM      4  C   UNL     1      11.950 191.319  44.309  1.00  0.00     0.009 A 
ATOM      5  C   UNL     1      11.783 190.771  43.051  1.00  0.00     0.020 A 
ATOM      6  C   UNL     1      10.724 191.186  42.238  1.00  0.00     0.056 A 
ATOM      7  N   UNL     1      10.691 190.423  41.070  1.00  0.00    -0.322 N 
ATOM      8  C   UNL     1      11.687 189.461  41.083  1.00  0.00     0.263 C 
ATOM      9  O   UNL     1      11.815 188.532  40.309  1.00  0.00    -0.271 OA
ATOM     10  C   UNL     1      12.624 189.789  42.282  1.00  0.00     0.199 C 
ATOM     11  H   UNL     1       9.938 190.447  40.390  1.00  0.00     0.170 HD
ENDROOT
BRANCH  10  12
ATOM     12  C   UNL     1      13.945 190.366  41.677  1.00  0.00     0.192 C 
BRANCH  12  13
ATOM     13  C   UNL     1      15.077 189.332  41.398  1.00  0.00     0.204 C 
BRANCH  13  14
ATOM     14  C   UNL     1      16.138 189.262  42.515  1.00  0.00     0.249 C 
ATOM     15  N   UNL     1      15.639 189.215  43.798  1.00  0.00    -0.331 N 
ATOM     16  O   UNL     1      17.337 189.205  42.237  1.00  0.00    -0.272 OA
ATOM     17  H   UNL     1      14.628 189.282  43.907  1.00  0.00     0.169 HD
BRANCH  15  18
ATOM     18  C   UNL     1      16.421 189.046  44.909  1.00  0.00     0.081 C 
ATOM     19  C   UNL     1      16.279 188.050  45.788  1.00  0.00    -0.013 C 
ATOM     20  C   UNL     1      15.268 186.951  45.783  1.00  0.00     0.037 C 
ENDBRANCH  15  18
ENDBRANCH  13  14
BRANCH  13  21
ATOM     21  N   UNL     1      14.532 187.990  41.150  1.00  0.00    -0.342 N 
ATOM     22  C   UNL     1      14.985 186.969  40.379  1.00  0.00     0.224 C 
ATOM     23  O   UNL     1      14.167 186.093  40.072  1.00  0.00    -0.275 OA
ATOM     24  H   UNL     1      13.578 187.832  41.459  1.00  0.00     0.164 HD
BRANCH  22  25
ATOM     25  C   UNL     1      16.457 186.772  39.991  1.00  0.00     0.095 C 
BRANCH  25  26
ATOM     26  C   UNL     1      16.753 187.383  38.612  1.00  0.00     0.113 C 
BRANCH  26  27
ATOM     27  C   UNL     1      17.791 188.488  38.624  1.00  0.00     0.218 C 
ATOM     28  N   UNL     1      18.625 188.513  39.707  1.00  0.00    -0.370 N 
ATOM     29  O   UNL     1      17.908 189.300  37.714  1.00  0.00    -0.275 OA
ATOM     30  H   UNL     1      18.306 188.170  40.604  1.00  0.00     0.159 HD
ATOM     31  H   UNL     1      19.233 189.320  39.759  1.00  0.00     0.159 HD
ENDBRANCH  26  27
ENDBRANCH  25  26
BRANCH  25  32
ATOM     32  C   UNL     1      17.038 185.363  40.169  1.00  0.00     0.092 C 
BRANCH  32  33
ATOM     33  C   UNL     1      17.969 185.276  41.367  1.00  0.00     0.156 C
ATOM     34  O   UNL     1      18.746 186.201  41.607  1.00  0.00    -0.297 OA
ENDBRANCH  32  33
ENDBRANCH  25  32
ENDBRANCH  22  25
ENDBRANCH  13  21
ENDBRANCH  12  13
BRANCH  12  36
ATOM     36  O   UNL     1      13.690 191.197  40.522  1.00  0.00    -0.386 OA
ATOM     37  H   UNL     1      12.774 190.979  40.228  1.00  0.00     0.211 HD
ENDBRANCH  12  36
ENDBRANCH  10  12
BRANCH  10  38
ATOM     38  O   UNL     1      12.930 188.656  43.087  1.00  0.00    -0.373 OA
ATOM     39  H   UNL     1      13.899 188.521  43.021  1.00  0.00     0.212 HD
ENDBRANCH  10  38
BRANCH   1  40
ATOM     40  C   UNL     1       9.026 192.844  41.543  1.00  0.00     0.026 A 
ATOM     41  C   UNL     1       7.726 192.414  41.268  1.00  0.00     0.123 A 
ATOM     42  C   UNL     1       9.614 193.788  40.676  1.00  0.00     0.016 A 
ATOM     43  C   UNL     1       7.042 192.893  40.153  1.00  0.00     0.047 A 
ATOM     44  C   UNL     1       8.975 194.226  39.511  1.00  0.00    -0.045 A 
ATOM     45  C   UNL     1       7.667 193.785  39.276  1.00  0.00     0.007 A 
BRANCH  41  46
ATOM     46  O   UNL     1       7.073 191.493  42.039  1.00  0.00    -0.507 OA
ATOM     47  H   UNL     1       7.197 191.722  42.979  1.00  0.00     0.293 HD
ENDBRANCH  41  46
BRANCH  44  48
ATOM     48  C   UNL     1       9.613 195.195  38.530  1.00  0.00     0.068 C 
BRANCH  48  49
ATOM     49  C   UNL     1      10.734 196.132  39.030  1.00  0.00     0.153 C
BRANCH  49  51
ATOM     51  N   UNL     1      11.536 196.727  37.952  1.00  0.00    -0.339 N 
ATOM     52  C   UNL     1      11.082 197.714  37.098  1.00  0.00     0.288 C 
ATOM     53  O   UNL     1      10.123 198.447  37.269  1.00  0.00    -0.266 OA
ATOM     54  H   UNL     1      12.321 196.193  37.578  1.00  0.00     0.164 HD
BRANCH  52  55
ATOM     55  C   UNL     1      11.929 197.828  35.823  1.00  0.00     0.222 C 
ATOM     56  O   UNL     1      11.447 197.418  34.770  1.00  0.00    -0.288 OA
BRANCH  55  57
ATOM     57  C   UNL     1      13.311 198.432  35.971  1.00  0.00     0.063 C 
ATOM     58  C   UNL     1      14.339 197.459  35.400  1.00  0.00     0.016 C 
BRANCH  57  59
ATOM     59  C   UNL     1      13.407 199.798  35.263  1.00  0.00     0.008 C 
ATOM     60  C   UNL     1      13.902 200.898  36.191  1.00  0.00     0.004 C 
ENDBRANCH  57  59
ENDBRANCH  55  57
ENDBRANCH  52  55
ENDBRANCH  49  51
ENDBRANCH  48  49
ENDBRANCH  44  48
ENDBRANCH   1  40
TORSDOF 11
ENDMDL
MODEL 7
REMARK VINA RESULT:      -6.4      1.656      2.070
REMARK SMILES C/C=C\NC(=O)[C@H]1NC(=O)[C@H](CC(N)=O)CC(=O)[C@@H](NC(=O)C(=O)[C@@H](C)CC)Cc2ccc(O)c(c2)-c2cccc3c2NC(=O)[C@@]3(O)[C@@H]1O
REMARK SMILES IDX 37 1 38 2 39 3 40 4 41 5 42 6 43 7 44 8 45 9 46 10 48 12
REMARK SMILES IDX 7 13 5 14 4 15 6 16 3 18 2 19 1 20 8 21 9 22 10 23 11 25
REMARK SMILES IDX 12 26 13 27 14 28 15 29 16 32 17 33 18 34 49 36 47 38 35 40
REMARK SMILES IDX 33 41 36 42 32 43 30 44 31 45 34 46 29 48 19 49 20 51 21 52
REMARK SMILES IDX 22 53 23 55 24 56 25 57 26 58 27 59 28 60
REMARK H PARENT 43 11 4 17 8 24 14 30 14 31 49 37 47 39 34 47 20 54
REMARK Flexibility Score:   89.900
ROOT
ATOM      1  C   UNL     1      14.205 190.644  43.446  1.00  0.00     0.009 A 
ATOM      2  C   UNL     1      15.149 191.612  43.824  1.00  0.00     0.011 A 
ATOM      3  C   UNL     1      15.072 192.930  43.330  1.00  0.00     0.001 A 
ATOM      4  C   UNL     1      14.022 193.331  42.494  1.00  0.00     0.009 A 
ATOM      5  C   UNL     1      13.084 192.382  42.130  1.00  0.00     0.020 A 
ATOM      6  C   UNL     1      13.227 191.055  42.548  1.00  0.00     0.056 A 
ATOM      7  N   UNL     1      12.231 190.264  41.973  1.00  0.00    -0.322 N 
ATOM      8  C   UNL     1      11.428 191.017  41.135  1.00  0.00     0.263 C 
ATOM      9  O   UNL     1      10.593 190.600  40.354  1.00  0.00    -0.271 OA
ATOM     10  C   UNL     1      11.790 192.512  41.374  1.00  0.00     0.199 C 
ATOM     11  H   UNL     1      12.206 189.250  42.020  1.00  0.00     0.170 HD
ENDROOT
BRANCH  10  12
ATOM     12  C   UNL     1      10.604 193.140  42.177  1.00  0.00     0.192 C 
BRANCH  12  13
ATOM     13  C   UNL     1       9.774 194.226  41.429  1.00  0.00     0.204 C 
BRANCH  13  14
ATOM     14  C   UNL     1       8.583 193.654  40.634  1.00  0.00     0.249 C 
ATOM     15  N   UNL     1       8.899 193.119  39.404  1.00  0.00    -0.331 N 
ATOM     16  O   UNL     1       7.450 193.650  41.118  1.00  0.00    -0.272 OA
ATOM     17  H   UNL     1       9.870 193.190  39.102  1.00  0.00     0.169 HD
BRANCH  15  18
ATOM     18  C   UNL     1       7.996 192.475  38.604  1.00  0.00     0.081 C 
ATOM     19  C   UNL     1       7.308 193.059  37.618  1.00  0.00    -0.013 C 
ATOM     20  C   UNL     1       7.341 194.489  37.191  1.00  0.00     0.037 C 
ENDBRANCH  15  18
ENDBRANCH  13  14
BRANCH  13  21
ATOM     21  N   UNL     1       9.297 195.268  42.350  1.00  0.00    -0.342 N 
ATOM     22  C   UNL     1       9.946 196.303  42.941  1.00  0.00     0.224 C 
ATOM     23  O   UNL     1       9.406 196.811  43.932  1.00  0.00    -0.275 OA
ATOM     24  H   UNL     1       8.381 195.117  42.759  1.00  0.00     0.164 HD
BRANCH  22  25
ATOM     25  C   UNL     1      11.216 196.958  42.379  1.00  0.00     0.095 C 
BRANCH  25  26
ATOM     26  C   UNL     1      12.082 197.545  43.505  1.00  0.00     0.113 C 
BRANCH  26  27
ATOM     27  C   UNL     1      13.154 196.608  44.027  1.00  0.00     0.218 C 
ATOM     28  N   UNL     1      14.406 196.783  43.505  1.00  0.00    -0.370 N 
ATOM     29  O   UNL     1      12.936 195.761  44.884  1.00  0.00    -0.275 OA
ATOM     30  H   UNL     1      14.520 197.137  42.565  1.00  0.00     0.159 HD
ATOM     31  H   UNL     1      15.081 196.079  43.774  1.00  0.00     0.159 HD
ENDBRANCH  26  27
ENDBRANCH  25  26
BRANCH  25  32
ATOM     32  C   UNL     1      11.037 197.909  41.189  1.00  0.00     0.092 C 
BRANCH  32  33
ATOM     33  C   UNL     1      11.254 197.208  39.858  1.00  0.00     0.156 C
ATOM     34  O   UNL     1      10.283 196.889  39.171  1.00  0.00    -0.297 OA
ENDBRANCH  32  33
ENDBRANCH  25  32
ENDBRANCH  22  25
ENDBRANCH  13  21
ENDBRANCH  12  13
BRANCH  12  36
ATOM     36  O   UNL     1       9.751 192.127  42.757  1.00  0.00    -0.386 OA
ATOM     37  H   UNL     1       9.299 192.558  43.520  1.00  0.00     0.211 HD
ENDBRANCH  12  36
ENDBRANCH  10  12
BRANCH  10  38
ATOM     38  O   UNL     1      11.986 193.246  40.171  1.00  0.00    -0.373 OA
ATOM     39  H   UNL     1      11.510 192.758  39.467  1.00  0.00     0.212 HD
ENDBRANCH  10  38
BRANCH   1  40
ATOM     40  C   UNL     1      14.097 189.338  44.099  1.00  0.00     0.026 A 
ATOM     41  C   UNL     1      13.645 189.158  45.409  1.00  0.00     0.123 A 
ATOM     42  C   UNL     1      14.648 188.227  43.425  1.00  0.00     0.016 A 
ATOM     43  C   UNL     1      13.757 187.917  46.032  1.00  0.00     0.047 A 
ATOM     44  C   UNL     1      14.837 186.994  44.056  1.00  0.00    -0.045 A 
ATOM     45  C   UNL     1      14.358 186.846  45.364  1.00  0.00     0.007 A 
BRANCH  41  46
ATOM     46  O   UNL     1      13.110 190.172  46.151  1.00  0.00    -0.507 OA
ATOM     47  H   UNL     1      12.199 189.932  46.405  1.00  0.00     0.293 HD
ENDBRANCH  41  46
BRANCH  44  48
ATOM     48  C   UNL     1      15.482 185.802  43.370  1.00  0.00     0.068 C 
BRANCH  48  49
ATOM     49  C   UNL     1      14.843 185.249  42.078  1.00  0.00     0.153 C
BRANCH  49  51
ATOM     51  N   UNL     1      14.877 186.189  40.948  1.00  0.00    -0.339 N 
ATOM     52  C   UNL     1      15.712 186.061  39.855  1.00  0.00     0.288 C 
ATOM     53  O   UNL     1      16.298 185.055  39.493  1.00  0.00    -0.266 OA
ATOM     54  H   UNL     1      14.541 187.141  41.098  1.00  0.00     0.164 HD
BRANCH  52  55
ATOM     55  C   UNL     1      15.864 187.373  39.072  1.00  0.00     0.222 C 
ATOM     56  O   UNL     1      15.128 187.557  38.105  1.00  0.00    -0.288 OA
BRANCH  55  57
ATOM     57  C   UNL     1      16.928 188.339  39.553  1.00  0.00     0.063 C 
ATOM     58  C   UNL     1      17.697 188.867  38.345  1.00  0.00     0.016 C 
BRANCH  57  59
ATOM     59  C   UNL     1      16.312 189.502  40.353  1.00  0.00     0.008 C 
ATOM     60  C   UNL     1      17.338 190.214  41.224  1.00  0.00     0.004 C 
ENDBRANCH  57  59
ENDBRANCH  55  57
ENDBRANCH  52  55
ENDBRANCH  49  51
ENDBRANCH  48  49
ENDBRANCH  44  48
ENDBRANCH   1  40
TORSDOF 11
ENDMDL
MODEL 8
REMARK VINA RESULT:      -6.4      4.203      7.150
REMARK SMILES C/C=C\NC(=O)[C@H]1NC(=O)[C@H](CC(N)=O)CC(=O)[C@@H](NC(=O)C(=O)[C@@H](C)CC)Cc2ccc(O)c(c2)-c2cccc3c2NC(=O)[C@@]3(O)[C@@H]1O
REMARK SMILES IDX 37 1 38 2 39 3 40 4 41 5 42 6 43 7 44 8 45 9 46 10 48 12
REMARK SMILES IDX 7 13 5 14 4 15 6 16 3 18 2 19 1 20 8 21 9 22 10 23 11 25
REMARK SMILES IDX 12 26 13 27 14 28 15 29 16 32 17 33 18 34 49 36 47 38 35 40
REMARK SMILES IDX 33 41 36 42 32 43 30 44 31 45 34 46 29 48 19 49 20 51 21 52
REMARK SMILES IDX 22 53 23 55 24 56 25 57 26 58 27 59 28 60
REMARK H PARENT 43 11 4 17 8 24 14 30 14 31 49 37 47 39 34 47 20 54
REMARK Flexibility Score:   89.900
ROOT
ATOM      1  C   UNL     1       8.858 193.083  40.158  1.00  0.00     0.009 A 
ATOM      2  C   UNL     1       7.933 192.771  39.149  1.00  0.00     0.011 A 
ATOM      3  C   UNL     1       7.608 193.711  38.149  1.00  0.00     0.001 A 
ATOM      4  C   UNL     1       8.238 194.961  38.097  1.00  0.00     0.009 A 
ATOM      5  C   UNL     1       9.159 195.265  39.083  1.00  0.00     0.020 A 
ATOM      6  C   UNL     1       9.400 194.363  40.123  1.00  0.00     0.056 A 
ATOM      7  N   UNL     1      10.277 194.927  41.051  1.00  0.00    -0.322 N 
ATOM      8  C   UNL     1      10.614 196.219  40.686  1.00  0.00     0.263 C 
ATOM      9  O   UNL     1      11.208 197.037  41.362  1.00  0.00    -0.271 OA
ATOM     10  C   UNL     1      10.090 196.437  39.237  1.00  0.00     0.199 C 
ATOM     11  H   UNL     1      10.496 194.520  41.954  1.00  0.00     0.170 HD
ENDROOT
BRANCH  10  12
ATOM     12  C   UNL     1      11.340 196.428  38.299  1.00  0.00     0.192 C 
BRANCH  12  13
ATOM     13  C   UNL     1      11.718 197.794  37.652  1.00  0.00     0.204 C 
BRANCH  13  14
ATOM     14  C   UNL     1      13.187 198.202  37.882  1.00  0.00     0.249 C 
ATOM     15  N   UNL     1      14.074 197.773  36.919  1.00  0.00    -0.331 N 
ATOM     16  O   UNL     1      13.499 198.903  38.845  1.00  0.00    -0.272 OA
ATOM     17  H   UNL     1      13.703 197.188  36.172  1.00  0.00     0.169 HD
BRANCH  15  18
ATOM     18  C   UNL     1      15.397 198.124  36.898  1.00  0.00     0.081 C 
ATOM     19  C   UNL     1      16.353 197.510  37.601  1.00  0.00    -0.013 C 
ATOM     20  C   UNL     1      16.210 196.366  38.550  1.00  0.00     0.037 C 
ENDBRANCH  15  18
ENDBRANCH  13  14
BRANCH  13  21
ATOM     21  N   UNL     1      11.421 197.809  36.212  1.00  0.00    -0.342 N 
ATOM     22  C   UNL     1      10.274 198.081  35.539  1.00  0.00     0.224 C 
ATOM     23  O   UNL     1      10.203 197.682  34.369  1.00  0.00    -0.275 OA
ATOM     24  H   UNL     1      12.121 197.391  35.608  1.00  0.00     0.164 HD
BRANCH  22  25
ATOM     25  C   UNL     1       9.139 198.957  36.088  1.00  0.00     0.095 C 
BRANCH  25  26
ATOM     26  C   UNL     1       7.803 198.626  35.403  1.00  0.00     0.113 C 
BRANCH  26  27
ATOM     27  C   UNL     1       6.830 197.849  36.268  1.00  0.00     0.218 C 
ATOM     28  N   UNL     1       6.792 198.200  37.589  1.00  0.00    -0.370 N 
ATOM     29  O   UNL     1       6.094 196.978  35.821  1.00  0.00    -0.275 OA
ATOM     30  H   UNL     1       7.618 198.568  38.041  1.00  0.00     0.159 HD
ATOM     31  H   UNL     1       6.227 197.598  38.173  1.00  0.00     0.159 HD
ENDBRANCH  26  27
ENDBRANCH  25  26
BRANCH  25  32
ATOM     32  C   UNL     1       9.414 200.463  36.192  1.00  0.00     0.092 C 
BRANCH  32  33
ATOM     33  C   UNL     1       9.601 201.105  34.827  1.00  0.00     0.156 C
ATOM     34  O   UNL     1       8.787 201.938  34.427  1.00  0.00    -0.297 OA
ENDBRANCH  32  33
ENDBRANCH  25  32
ENDBRANCH  22  25
ENDBRANCH  13  21
ENDBRANCH  12  13
BRANCH  12  36
ATOM     36  O   UNL     1      12.483 195.808  38.931  1.00  0.00    -0.386 OA
ATOM     37  H   UNL     1      12.983 195.361  38.208  1.00  0.00     0.211 HD
ENDBRANCH  12  36
ENDBRANCH  10  12
BRANCH  10  38
ATOM     38  O   UNL     1       9.383 197.660  39.069  1.00  0.00    -0.373 OA
ATOM     39  H   UNL     1       9.616 197.997  38.178  1.00  0.00     0.212 HD
ENDBRANCH  10  38
BRANCH   1  40
ATOM     40  C   UNL     1       9.405 192.081  41.075  1.00  0.00     0.026 A 
ATOM     41  C   UNL     1       9.469 192.247  42.461  1.00  0.00     0.123 A 
ATOM     42  C   UNL     1      10.060 190.968  40.506  1.00  0.00     0.016 A 
ATOM     43  C   UNL     1      10.180 191.346  43.250  1.00  0.00     0.047 A 
ATOM     44  C   UNL     1      10.840 190.094  41.269  1.00  0.00    -0.045 A 
ATOM     45  C   UNL     1      10.869 190.283  42.657  1.00  0.00     0.007 A 
BRANCH  41  46
ATOM     46  O   UNL     1       8.881 193.298  43.107  1.00  0.00    -0.507 OA
ATOM     47  H   UNL     1       9.578 193.874  43.474  1.00  0.00     0.293 HD
ENDBRANCH  41  46
BRANCH  44  48
ATOM     48  C   UNL     1      11.603 188.925  40.670  1.00  0.00     0.068 C 
BRANCH  48  49
ATOM     49  C   UNL     1      13.030 188.627  41.179  1.00  0.00     0.153 C
BRANCH  49  51
ATOM     51  N   UNL     1      14.068 188.754  40.145  1.00  0.00    -0.339 N 
ATOM     52  C   UNL     1      14.397 187.757  39.247  1.00  0.00     0.288 C 
ATOM     53  O   UNL     1      13.724 186.784  38.952  1.00  0.00    -0.266 OA
ATOM     54  H   UNL     1      14.809 189.442  40.283  1.00  0.00     0.164 HD
BRANCH  52  55
ATOM     55  C   UNL     1      15.772 187.976  38.601  1.00  0.00     0.222 C 
ATOM     56  O   UNL     1      15.989 189.054  38.052  1.00  0.00    -0.288 OA
BRANCH  55  57
ATOM     57  C   UNL     1      16.759 186.828  38.684  1.00  0.00     0.063 C 
ATOM     58  C   UNL     1      18.113 187.303  38.165  1.00  0.00     0.016 C 
BRANCH  57  59
ATOM     59  C   UNL     1      16.887 186.299  40.125  1.00  0.00     0.008 C 
ATOM     60  C   UNL     1      16.520 184.825  40.235  1.00  0.00     0.004 C 
ENDBRANCH  57  59
ENDBRANCH  55  57
ENDBRANCH  52  55
ENDBRANCH  49  51
ENDBRANCH  48  49
ENDBRANCH  44  48
ENDBRANCH   1  40
TORSDOF 11
ENDMDL
MODEL 9
REMARK VINA RESULT:      -6.4      2.418      4.670
REMARK SMILES C/C=C\NC(=O)[C@H]1NC(=O)[C@H](CC(N)=O)CC(=O)[C@@H](NC(=O)C(=O)[C@@H](C)CC)Cc2ccc(O)c(c2)-c2cccc3c2NC(=O)[C@@]3(O)[C@@H]1O
REMARK SMILES IDX 37 1 38 2 39 3 40 4 41 5 42 6 43 7 44 8 45 9 46 10 48 12
REMARK SMILES IDX 7 13 5 14 4 15 6 16 3 18 2 19 1 20 8 21 9 22 10 23 11 25
REMARK SMILES IDX 12 26 13 27 14 28 15 29 16 32 17 33 18 34 49 36 47 38 35 40
REMARK SMILES IDX 33 41 36 42 32 43 30 44 31 45 34 46 29 48 19 49 20 51 21 52
REMARK SMILES IDX 22 53 23 55 24 56 25 57 26 58 27 59 28 60
REMARK H PARENT 43 11 4 17 8 24 14 30 14 31 49 37 47 39 34 47 20 54
REMARK Flexibility Score:   89.900
ROOT
ATOM      1  C   UNL     1      14.922 194.676  42.935  1.00  0.00     0.009 A 
ATOM      2  C   UNL     1      14.595 194.695  44.300  1.00  0.00     0.011 A 
ATOM      3  C   UNL     1      13.341 195.167  44.737  1.00  0.00     0.001 A 
ATOM      4  C   UNL     1      12.362 195.578  43.824  1.00  0.00     0.009 A 
ATOM      5  C   UNL     1      12.677 195.549  42.478  1.00  0.00     0.020 A 
ATOM      6  C   UNL     1      13.958 195.170  42.064  1.00  0.00     0.056 A 
ATOM      7  N   UNL     1      14.076 195.322  40.682  1.00  0.00    -0.322 N 
ATOM      8  C   UNL     1      12.910 195.835  40.141  1.00  0.00     0.263 C 
ATOM      9  O   UNL     1      12.749 196.247  39.008  1.00  0.00    -0.271 OA
ATOM     10  C   UNL     1      11.828 195.789  41.259  1.00  0.00     0.199 C 
ATOM     11  H   UNL     1      14.948 195.239  40.168  1.00  0.00     0.170 HD
ENDROOT
BRANCH  10  12
ATOM     12  C   UNL     1      10.845 194.631  40.888  1.00  0.00     0.192 C 
BRANCH  12  13
ATOM     13  C   UNL     1       9.400 195.061  40.497  1.00  0.00     0.204 C 
BRANCH  13  14
ATOM     14  C   UNL     1       9.123 194.987  38.981  1.00  0.00     0.249 C 
ATOM     15  N   UNL     1       7.894 194.471  38.633  1.00  0.00    -0.331 N 
ATOM     16  O   UNL     1       9.947 195.415  38.172  1.00  0.00    -0.272 OA
ATOM     17  H   UNL     1       7.298 194.137  39.389  1.00  0.00     0.169 HD
BRANCH  15  18
ATOM     18  C   UNL     1       7.430 194.424  37.346  1.00  0.00     0.081 C 
ATOM     19  C   UNL     1       6.946 193.326  36.757  1.00  0.00    -0.013 C 
ATOM     20  C   UNL     1       6.824 191.951  37.326  1.00  0.00     0.037 C 
ENDBRANCH  15  18
ENDBRANCH  13  14
BRANCH  13  21
ATOM     21  N   UNL     1       8.390 194.279  41.223  1.00  0.00    -0.342 N 
ATOM     22  C   UNL     1       8.476 193.088  41.868  1.00  0.00     0.224 C 
ATOM     23  O   UNL     1       7.413 192.491  42.087  1.00  0.00    -0.275 OA
ATOM     24  H   UNL     1       7.426 194.568  41.096  1.00  0.00     0.164 HD
BRANCH  22  25
ATOM     25  C   UNL     1       9.775 192.517  42.453  1.00  0.00     0.095 C 
BRANCH  25  26
ATOM     26  C   UNL     1       9.878 191.004  42.201  1.00  0.00     0.113 C 
BRANCH  26  27
ATOM     27  C   UNL     1      10.189 190.626  40.766  1.00  0.00     0.218 C 
ATOM     28  N   UNL     1       9.528 191.336  39.804  1.00  0.00    -0.370 N 
ATOM     29  O   UNL     1      11.003 189.759  40.470  1.00  0.00    -0.275 OA
ATOM     30  H   UNL     1       8.609 191.715  39.992  1.00  0.00     0.159 HD
ATOM     31  H   UNL     1       9.656 190.997  38.859  1.00  0.00     0.159 HD
ENDBRANCH  26  27
ENDBRANCH  25  26
BRANCH  25  32
ATOM     32  C   UNL     1      10.123 192.919  43.892  1.00  0.00     0.092 C 
BRANCH  32  33
ATOM     33  C   UNL     1      11.197 192.026  44.492  1.00  0.00     0.156 C
ATOM     34  O   UNL     1      10.993 191.463  45.568  1.00  0.00    -0.297 OA
ENDBRANCH  32  33
ENDBRANCH  25  32
ENDBRANCH  22  25
ENDBRANCH  13  21
ENDBRANCH  12  13
BRANCH  12  36
ATOM     36  O   UNL     1      11.415 193.735  39.907  1.00  0.00    -0.386 OA
ATOM     37  H   UNL     1      12.389 193.748  40.061  1.00  0.00     0.211 HD
ENDBRANCH  12  36
ENDBRANCH  10  12
BRANCH  10  38
ATOM     38  O   UNL     1      11.098 197.002  41.391  1.00  0.00    -0.373 OA
ATOM     39  H   UNL     1      11.629 197.584  41.976  1.00  0.00     0.212 HD
ENDBRANCH  10  38
BRANCH   1  40
ATOM     40  C   UNL     1      16.102 193.988  42.407  1.00  0.00     0.026 A 
ATOM     41  C   UNL     1      17.240 194.647  41.933  1.00  0.00     0.123 A 
ATOM     42  C   UNL     1      16.006 192.595  42.207  1.00  0.00     0.016 A 
ATOM     43  C   UNL     1      18.238 193.943  41.264  1.00  0.00     0.047 A 
ATOM     44  C   UNL     1      16.960 191.882  41.473  1.00  0.00    -0.045 A 
ATOM     45  C   UNL     1      18.094 192.573  41.027  1.00  0.00     0.007 A 
BRANCH  41  46
ATOM     46  O   UNL     1      17.421 195.995  42.065  1.00  0.00    -0.507 OA
ATOM     47  H   UNL     1      17.235 196.425  41.210  1.00  0.00     0.293 HD
ENDBRANCH  41  46
BRANCH  44  48
ATOM     48  C   UNL     1      16.847 190.394  41.193  1.00  0.00     0.068 C 
BRANCH  48  49
ATOM     49  C   UNL     1      18.106 189.624  40.736  1.00  0.00     0.153 C
BRANCH  49  51
ATOM     51  N   UNL     1      17.813 188.339  40.085  1.00  0.00    -0.339 N 
ATOM     52  C   UNL     1      17.285 188.213  38.814  1.00  0.00     0.288 C 
ATOM     53  O   UNL     1      17.268 189.063  37.940  1.00  0.00    -0.266 OA
ATOM     54  H   UNL     1      17.662 187.519  40.673  1.00  0.00     0.164 HD
BRANCH  52  55
ATOM     55  C   UNL     1      16.674 186.828  38.563  1.00  0.00     0.222 C 
ATOM     56  O   UNL     1      17.381 185.970  38.039  1.00  0.00    -0.288 OA
BRANCH  55  57
ATOM     57  C   UNL     1      15.229 186.631  38.977  1.00  0.00     0.063 C 
ATOM     58  C   UNL     1      15.185 185.710  40.192  1.00  0.00     0.016 C 
BRANCH  57  59
ATOM     59  C   UNL     1      14.545 187.975  39.291  1.00  0.00     0.008 C 
ATOM     60  C   UNL     1      14.011 188.034  40.716  1.00  0.00     0.004 C 
ENDBRANCH  57  59
ENDBRANCH  55  57
ENDBRANCH  52  55
ENDBRANCH  49  51
ENDBRANCH  48  49
ENDBRANCH  44  48
ENDBRANCH   1  40
TORSDOF 11
ENDMDL
MODEL 10
REMARK VINA RESULT:      -6.3      2.910      8.082
REMARK SMILES C/C=C\NC(=O)[C@H]1NC(=O)[C@H](CC(N)=O)CC(=O)[C@@H](NC(=O)C(=O)[C@@H](C)CC)Cc2ccc(O)c(c2)-c2cccc3c2NC(=O)[C@@]3(O)[C@@H]1O
REMARK SMILES IDX 37 1 38 2 39 3 40 4 41 5 42 6 43 7 44 8 45 9 46 10 48 12
REMARK SMILES IDX 7 13 5 14 4 15 6 16 3 18 2 19 1 20 8 21 9 22 10 23 11 25
REMARK SMILES IDX 12 26 13 27 14 28 15 29 16 32 17 33 18 34 49 36 47 38 35 40
REMARK SMILES IDX 33 41 36 42 32 43 30 44 31 45 34 46 29 48 19 49 20 51 21 52
REMARK SMILES IDX 22 53 23 55 24 56 25 57 26 58 27 59 28 60
REMARK H PARENT 43 11 4 17 8 24 14 30 14 31 49 37 47 39 34 47 20 54
REMARK Flexibility Score:   89.900
ROOT
ATOM      1  C   UNL     1      10.855 194.688  44.045  1.00  0.00     0.009 A 
ATOM      2  C   UNL     1      11.373 194.294  45.288  1.00  0.00     0.011 A 
ATOM      3  C   UNL     1      11.208 192.974  45.756  1.00  0.00     0.001 A 
ATOM      4  C   UNL     1      10.572 192.002  44.974  1.00  0.00     0.009 A 
ATOM      5  C   UNL     1      10.071 192.384  43.743  1.00  0.00     0.020 A 
ATOM      6  C   UNL     1      10.157 193.718  43.333  1.00  0.00     0.056 A 
ATOM      7  N   UNL     1       9.492 193.888  42.118  1.00  0.00    -0.322 N 
ATOM      8  C   UNL     1       8.917 192.699  41.702  1.00  0.00     0.263 C 
ATOM      9  O   UNL     1       8.128 192.549  40.789  1.00  0.00    -0.271 OA
ATOM     10  C   UNL     1       9.469 191.575  42.627  1.00  0.00     0.199 C 
ATOM     11  H   UNL     1       9.303 194.787  41.688  1.00  0.00     0.170 HD
ENDROOT
BRANCH  10  12
ATOM     12  C   UNL     1      10.486 190.749  41.774  1.00  0.00     0.192 C 
BRANCH  12  13
ATOM     13  C   UNL     1      11.994 191.028  42.049  1.00  0.00     0.204 C 
BRANCH  13  14
ATOM     14  C   UNL     1      12.816 189.755  42.333  1.00  0.00     0.249 C 
ATOM     15  N   UNL     1      13.219 189.594  43.640  1.00  0.00    -0.331 N 
ATOM     16  O   UNL     1      13.035 188.938  41.437  1.00  0.00    -0.272 OA
ATOM     17  H   UNL     1      12.991 190.342  44.293  1.00  0.00     0.169 HD
BRANCH  15  18
ATOM     18  C   UNL     1      13.865 188.479  44.101  1.00  0.00     0.081 C 
ATOM     19  C   UNL     1      14.039 188.187  45.394  1.00  0.00    -0.013 C 
ATOM     20  C   UNL     1      13.612 188.980  46.585  1.00  0.00     0.037 C 
ENDBRANCH  15  18
ENDBRANCH  13  14
BRANCH  13  21
ATOM     21  N   UNL     1      12.612 191.780  40.948  1.00  0.00    -0.342 N 
ATOM     22  C   UNL     1      13.589 192.723  40.947  1.00  0.00     0.224 C 
ATOM     23  O   UNL     1      13.674 193.440  39.942  1.00  0.00    -0.275 OA
ATOM     24  H   UNL     1      12.139 191.729  40.052  1.00  0.00     0.164 HD
BRANCH  22  25
ATOM     25  C   UNL     1      14.659 192.855  42.039  1.00  0.00     0.095 C 
BRANCH  25  26
ATOM     26  C   UNL     1      15.739 191.772  41.890  1.00  0.00     0.113 C 
BRANCH  26  27
ATOM     27  C   UNL     1      17.045 192.264  41.296  1.00  0.00     0.218 C 
ATOM     28  N   UNL     1      17.409 193.539  41.626  1.00  0.00    -0.370 N 
ATOM     29  O   UNL     1      17.756 191.564  40.584  1.00  0.00    -0.275 OA
ATOM     30  H   UNL     1      16.703 194.235  41.826  1.00  0.00     0.159 HD
ATOM     31  H   UNL     1      18.218 193.893  41.132  1.00  0.00     0.159 HD
ENDBRANCH  26  27
ENDBRANCH  25  26
BRANCH  25  32
ATOM     32  C   UNL     1      14.163 193.025  43.481  1.00  0.00     0.092 C 
BRANCH  32  33
ATOM     33  C   UNL     1      15.119 193.855  44.321  1.00  0.00     0.156 C
ATOM     34  O   UNL     1      15.641 194.861  43.839  1.00  0.00    -0.297 OA
ENDBRANCH  32  33
ENDBRANCH  25  32
ENDBRANCH  22  25
ENDBRANCH  13  21
ENDBRANCH  12  13
BRANCH  12  36
ATOM     36  O   UNL     1      10.194 189.333  41.810  1.00  0.00    -0.386 OA
ATOM     37  H   UNL     1       9.765 189.167  42.682  1.00  0.00     0.211 HD
ENDBRANCH  12  36
ENDBRANCH  10  12
BRANCH  10  38
ATOM     38  O   UNL     1       8.460 190.708  43.128  1.00  0.00    -0.373 OA
ATOM     39  H   UNL     1       8.076 190.250  42.351  1.00  0.00     0.212 HD
ENDBRANCH  10  38
BRANCH   1  40
ATOM     40  C   UNL     1      11.192 195.963  43.408  1.00  0.00     0.026 A 
ATOM     41  C   UNL     1      10.283 197.008  43.230  1.00  0.00     0.123 A 
ATOM     42  C   UNL     1      12.455 196.064  42.788  1.00  0.00     0.016 A 
ATOM     43  C   UNL     1      10.614 198.108  42.442  1.00  0.00     0.047 A 
ATOM     44  C   UNL     1      12.781 197.122  41.933  1.00  0.00    -0.045 A 
ATOM     45  C   UNL     1      11.850 198.160  41.791  1.00  0.00     0.007 A 
BRANCH  41  46
ATOM     46  O   UNL     1       9.030 196.999  43.777  1.00  0.00    -0.507 OA
ATOM     47  H   UNL     1       8.719 197.919  43.869  1.00  0.00     0.293 HD
ENDBRANCH  41  46
BRANCH  44  48
ATOM     48  C   UNL     1      14.111 197.222  41.207  1.00  0.00     0.068 C 
BRANCH  48  49
ATOM     49  C   UNL     1      14.238 196.606  39.796  1.00  0.00     0.153 C
BRANCH  49  51
ATOM     51  N   UNL     1      12.947 196.299  39.163  1.00  0.00    -0.339 N 
ATOM     52  C   UNL     1      12.392 197.035  38.134  1.00  0.00     0.288 C 
ATOM     53  O   UNL     1      12.969 197.817  37.397  1.00  0.00    -0.266 OA
ATOM     54  H   UNL     1      12.266 195.753  39.690  1.00  0.00     0.164 HD
BRANCH  52  55
ATOM     55  C   UNL     1      10.887 196.782  37.973  1.00  0.00     0.222 C 
ATOM     56  O   UNL     1      10.471 195.638  38.146  1.00  0.00    -0.288 OA
BRANCH  55  57
ATOM     57  C   UNL     1      10.028 197.972  37.598  1.00  0.00     0.063 C 
ATOM     58  C   UNL     1       8.781 197.473  36.874  1.00  0.00     0.016 C 
BRANCH  57  59
ATOM     59  C   UNL     1       9.638 198.799  38.839  1.00  0.00     0.008 C 
ATOM     60  C   UNL     1       9.403 200.266  38.507  1.00  0.00     0.004 C 
ENDBRANCH  57  59
ENDBRANCH  55  57
ENDBRANCH  52  55
ENDBRANCH  49  51
ENDBRANCH  48  49
ENDBRANCH  44  48
ENDBRANCH   1  40
TORSDOF 11
ENDMDL
