MODEL 1
REMARK VINA RESULT:      -7.0      0.000      0.000
REMARK SMILES CC(C)C[C@@H](NC(=O)[C@H](CO)NC(=O)OCc1ccccc1)C(=O)N[C@@H](Cc1ccc(O)cc1)C(N)=O
REMARK SMILES IDX 5 1 4 2 2 3 1 4 3 5 6 6 7 7 8 8 9 10 10 11 11 12 12 14 13 15
REMARK SMILES IDX 14 16 15 18 16 19 17 20 18 21 22 22 19 23 21 24 20 25 23 26
REMARK SMILES IDX 24 27 25 28 26 30 27 31 28 32 29 33 34 34 30 35 33 36 31 37
REMARK SMILES IDX 32 38 35 40 36 41 37 42
REMARK H PARENT 6 9 11 13 12 17 25 29 32 39 36 43 36 44
ROOT
ATOM      1  C   UNL     1       7.966 193.808  37.937  1.00  0.00     0.171 C 
ENDROOT
BRANCH   1   2
ATOM      2  C   UNL     1       8.007 192.906  36.691  1.00  0.00     0.038 C 
BRANCH   2   3
ATOM      3  C   UNL     1       6.863 191.878  36.534  1.00  0.00    -0.015 C 
ATOM      4  C   UNL     1       7.155 190.977  35.330  1.00  0.00     0.007 C 
ATOM      5  C   UNL     1       5.489 192.522  36.364  1.00  0.00     0.007 C 
ENDBRANCH   2   3
ENDBRANCH   1   2
BRANCH   1   6
ATOM      6  N   UNL     1       8.708 193.263  39.070  1.00  0.00    -0.342 N 
ATOM      7  C   UNL     1       8.199 193.293  40.349  1.00  0.00     0.245 C 
ATOM      8  O   UNL     1       7.035 193.606  40.594  1.00  0.00    -0.273 OA
ATOM      9  H   UNL     1       9.718 193.214  38.944  1.00  0.00     0.164 HD
BRANCH   7  10
ATOM     10  C   UNL     1       9.178 192.827  41.438  1.00  0.00     0.200 C 
BRANCH  10  11
ATOM     11  C   UNL     1       9.862 194.063  42.034  1.00  0.00     0.191 C 
BRANCH  11  12
ATOM     12  O   UNL     1       9.206 195.255  41.603  1.00  0.00    -0.394 OA
ATOM     13  H   UNL     1       8.362 195.311  42.085  1.00  0.00     0.210 HD
ENDBRANCH  11  12
ENDBRANCH  10  11
BRANCH  10  14
ATOM     14  N   UNL     1      10.139 191.913  40.832  1.00  0.00    -0.307 N 
ATOM     15  C   UNL     1      10.186 190.609  41.218  1.00  0.00     0.408 C 
ATOM     16  O   UNL     1       9.632 190.142  42.202  1.00  0.00    -0.225 OA
ATOM     17  H   UNL     1      10.401 192.058  39.866  1.00  0.00     0.168 HD
BRANCH  15  18
ATOM     18  O   UNL     1      10.912 189.909  40.318  1.00  0.00    -0.445 OA
BRANCH  18  19
ATOM     19  C   UNL     1      11.499 188.720  40.857  1.00  0.00     0.270 C 
BRANCH  19  20
ATOM     20  C   UNL     1      12.978 188.728  40.558  1.00  0.00    -0.011 A 
ATOM     21  C   UNL     1      13.810 189.721  41.092  1.00  0.00     0.007 A 
ATOM     22  C   UNL     1      13.549 187.719  39.767  1.00  0.00     0.007 A 
ATOM     23  C   UNL     1      15.182 189.712  40.831  1.00  0.00     0.000 A 
ATOM     24  C   UNL     1      14.920 187.712  39.505  1.00  0.00     0.000 A 
ATOM     25  C   UNL     1      15.736 188.710  40.037  1.00  0.00     0.000 A 
ENDBRANCH  19  20
ENDBRANCH  18  19
ENDBRANCH  15  18
ENDBRANCH  10  14
ENDBRANCH   7  10
ENDBRANCH   1   6
BRANCH   1  26
ATOM     26  C   UNL     1       8.485 195.231  37.658  1.00  0.00     0.243 C 
ATOM     27  O   UNL     1       9.683 195.476  37.510  1.00  0.00    -0.273 OA
ATOM     28  N   UNL     1       7.517 196.199  37.577  1.00  0.00    -0.342 N 
ATOM     29  H   UNL     1       6.552 195.995  37.829  1.00  0.00     0.164 HD
BRANCH  28  30
ATOM     30  C   UNL     1       7.848 197.610  37.369  1.00  0.00     0.175 C 
BRANCH  30  31
ATOM     31  C   UNL     1       8.345 197.852  35.934  1.00  0.00     0.070 C 
BRANCH  31  32
ATOM     32  C   UNL     1       9.706 198.506  35.869  1.00  0.00    -0.045 A 
ATOM     33  C   UNL     1      10.149 199.317  36.925  1.00  0.00     0.007 A 
ATOM     34  C   UNL     1      10.535 198.321  34.754  1.00  0.00     0.007 A 
ATOM     35  C   UNL     1      11.395 199.945  36.861  1.00  0.00     0.046 A 
ATOM     36  C   UNL     1      11.778 198.952  34.690  1.00  0.00     0.046 A 
ATOM     37  C   UNL     1      12.198 199.758  35.740  1.00  0.00     0.115 A 
BRANCH  37  38
ATOM     38  O   UNL     1      13.418 200.355  35.633  1.00  0.00    -0.508 OA
ATOM     39  H   UNL     1      13.891 199.962  34.882  1.00  0.00     0.293 HD
ENDBRANCH  37  38
ENDBRANCH  31  32
ENDBRANCH  30  31
BRANCH  30  40
ATOM     40  C   UNL     1       6.564 198.408  37.662  1.00  0.00     0.240 C 
ATOM     41  N   UNL     1       6.615 199.298  38.691  1.00  0.00    -0.368 N 
ATOM     42  O   UNL     1       5.529 198.260  37.012  1.00  0.00    -0.273 OA
ATOM     43  H   UNL     1       7.475 199.541  39.170  1.00  0.00     0.159 HD
ATOM     44  H   UNL     1       5.795 199.864  38.870  1.00  0.00     0.159 HD
ENDBRANCH  30  40
ENDBRANCH  28  30
ENDBRANCH   1  26
TORSDOF 16
ENDMDL
MODEL 2
REMARK VINA RESULT:      -7.0      3.415      9.094
REMARK SMILES CC(C)C[C@@H](NC(=O)[C@H](CO)NC(=O)OCc1ccccc1)C(=O)N[C@@H](Cc1ccc(O)cc1)C(N)=O
REMARK SMILES IDX 5 1 4 2 2 3 1 4 3 5 6 6 7 7 8 8 9 10 10 11 11 12 12 14 13 15
REMARK SMILES IDX 14 16 15 18 16 19 17 20 18 21 22 22 19 23 21 24 20 25 23 26
REMARK SMILES IDX 24 27 25 28 26 30 27 31 28 32 29 33 34 34 30 35 33 36 31 37
REMARK SMILES IDX 32 38 35 40 36 41 37 42
REMARK H PARENT 6 9 11 13 12 17 25 29 32 39 36 43 36 44
ROOT
ATOM      1  C   UNL     1       9.671 191.225  42.670  1.00  0.00     0.171 C 
ENDROOT
BRANCH   1   2
ATOM      2  C   UNL     1      10.261 191.903  43.920  1.00  0.00     0.038 C 
BRANCH   2   3
ATOM      3  C   UNL     1      10.874 193.309  43.729  1.00  0.00    -0.015 C 
ATOM      4  C   UNL     1      12.324 193.301  44.224  1.00  0.00     0.007 C 
ATOM      5  C   UNL     1      10.099 194.411  44.448  1.00  0.00     0.007 C 
ENDBRANCH   2   3
ENDBRANCH   1   2
BRANCH   1   6
ATOM      6  N   UNL     1       9.406 192.157  41.578  1.00  0.00    -0.342 N 
ATOM      7  C   UNL     1       8.198 192.171  40.917  1.00  0.00     0.245 C 
ATOM      8  O   UNL     1       7.218 191.542  41.311  1.00  0.00    -0.273 OA
ATOM      9  H   UNL     1      10.233 192.509  41.098  1.00  0.00     0.164 HD
BRANCH   7  10
ATOM     10  C   UNL     1       8.150 193.098  39.693  1.00  0.00     0.200 C 
BRANCH  10  11
ATOM     11  C   UNL     1       7.883 192.244  38.449  1.00  0.00     0.191 C 
BRANCH  11  12
ATOM     12  O   UNL     1       6.544 191.750  38.459  1.00  0.00    -0.394 OA
ATOM     13  H   UNL     1       6.032 192.290  37.833  1.00  0.00     0.210 HD
ENDBRANCH  11  12
ENDBRANCH  10  11
BRANCH  10  14
ATOM     14  N   UNL     1       9.421 193.808  39.603  1.00  0.00    -0.307 N 
ATOM     15  C   UNL     1       9.465 195.088  39.145  1.00  0.00     0.408 C 
ATOM     16  O   UNL     1       8.549 195.669  38.582  1.00  0.00    -0.225 OA
ATOM     17  H   UNL     1      10.141 193.597  40.282  1.00  0.00     0.168 HD
BRANCH  15  18
ATOM     18  O   UNL     1      10.669 195.624  39.446  1.00  0.00    -0.445 OA
BRANCH  18  19
ATOM     19  C   UNL     1      11.026 195.492  40.825  1.00  0.00     0.270 C 
BRANCH  19  20
ATOM     20  C   UNL     1      12.461 195.036  40.915  1.00  0.00    -0.011 A 
ATOM     21  C   UNL     1      13.454 195.893  41.408  1.00  0.00     0.007 A 
ATOM     22  C   UNL     1      12.818 193.732  40.539  1.00  0.00     0.007 A 
ATOM     23  C   UNL     1      14.778 195.460  41.511  1.00  0.00     0.000 A 
ATOM     24  C   UNL     1      14.142 193.300  40.641  1.00  0.00     0.000 A 
ATOM     25  C   UNL     1      15.121 194.166  41.126  1.00  0.00     0.000 A 
ENDBRANCH  19  20
ENDBRANCH  18  19
ENDBRANCH  15  18
ENDBRANCH  10  14
ENDBRANCH   7  10
ENDBRANCH   1   6
BRANCH   1  26
ATOM     26  C   UNL     1      10.562 190.089  42.133  1.00  0.00     0.243 C 
ATOM     27  O   UNL     1      10.107 189.155  41.472  1.00  0.00    -0.273 OA
ATOM     28  N   UNL     1      11.894 190.200  42.437  1.00  0.00    -0.342 N 
ATOM     29  H   UNL     1      12.223 190.909  43.090  1.00  0.00     0.164 HD
BRANCH  28  30
ATOM     30  C   UNL     1      12.866 189.177  42.046  1.00  0.00     0.175 C 
BRANCH  30  31
ATOM     31  C   UNL     1      13.834 189.718  40.981  1.00  0.00     0.070 C 
BRANCH  31  32
ATOM     32  C   UNL     1      14.635 188.638  40.290  1.00  0.00    -0.045 A 
ATOM     33  C   UNL     1      16.036 188.704  40.268  1.00  0.00     0.007 A 
ATOM     34  C   UNL     1      13.991 187.567  39.655  1.00  0.00     0.007 A 
ATOM     35  C   UNL     1      16.781 187.723  39.611  1.00  0.00     0.046 A 
ATOM     36  C   UNL     1      14.737 186.590  38.995  1.00  0.00     0.046 A 
ATOM     37  C   UNL     1      16.123 186.675  38.976  1.00  0.00     0.115 A 
BRANCH  37  38
ATOM     38  O   UNL     1      16.810 185.699  38.318  1.00  0.00    -0.508 OA
ATOM     39  H   UNL     1      16.202 184.965  38.130  1.00  0.00     0.293 HD
ENDBRANCH  37  38
ENDBRANCH  31  32
ENDBRANCH  30  31
BRANCH  30  40
ATOM     40  C   UNL     1      13.612 188.771  43.330  1.00  0.00     0.240 C 
ATOM     41  N   UNL     1      14.016 187.473  43.422  1.00  0.00    -0.368 N 
ATOM     42  O   UNL     1      13.840 189.563  44.244  1.00  0.00    -0.273 OA
ATOM     43  H   UNL     1      13.960 186.821  42.648  1.00  0.00     0.159 HD
ATOM     44  H   UNL     1      14.547 187.198  44.239  1.00  0.00     0.159 HD
ENDBRANCH  30  40
ENDBRANCH  28  30
ENDBRANCH   1  26
TORSDOF 16
ENDMDL
MODEL 3
REMARK VINA RESULT:      -7.0      2.364      9.379
REMARK SMILES CC(C)C[C@@H](NC(=O)[C@H](CO)NC(=O)OCc1ccccc1)C(=O)N[C@@H](Cc1ccc(O)cc1)C(N)=O
REMARK SMILES IDX 5 1 4 2 2 3 1 4 3 5 6 6 7 7 8 8 9 10 10 11 11 12 12 14 13 15
REMARK SMILES IDX 14 16 15 18 16 19 17 20 18 21 22 22 19 23 21 24 20 25 23 26
REMARK SMILES IDX 24 27 25 28 26 30 27 31 28 32 29 33 34 34 30 35 33 36 31 37
REMARK SMILES IDX 32 38 35 40 36 41 37 42
REMARK H PARENT 6 9 11 13 12 17 25 29 32 39 36 43 36 44
ROOT
ATOM      1  C   UNL     1       9.828 192.279  41.012  1.00  0.00     0.171 C 
ENDROOT
BRANCH   1   2
ATOM      2  C   UNL     1      10.659 193.395  41.670  1.00  0.00     0.038 C 
BRANCH   2   3
ATOM      3  C   UNL     1      11.265 194.461  40.731  1.00  0.00    -0.015 C 
ATOM      4  C   UNL     1      12.767 194.586  41.008  1.00  0.00     0.007 C 
ATOM      5  C   UNL     1      10.609 195.834  40.867  1.00  0.00     0.007 C 
ENDBRANCH   2   3
ENDBRANCH   1   2
BRANCH   1   6
ATOM      6  N   UNL     1       9.231 192.676  39.741  1.00  0.00    -0.342 N 
ATOM      7  C   UNL     1       7.977 193.240  39.677  1.00  0.00     0.245 C 
ATOM      8  O   UNL     1       7.362 193.609  40.676  1.00  0.00    -0.273 OA
ATOM      9  H   UNL     1       9.596 192.193  38.921  1.00  0.00     0.164 HD
BRANCH   7  10
ATOM     10  C   UNL     1       7.440 193.444  38.251  1.00  0.00     0.200 C 
BRANCH  10  11
ATOM     11  C   UNL     1       7.099 192.072  37.662  1.00  0.00     0.191 C 
BRANCH  11  12
ATOM     12  O   UNL     1       8.290 191.331  37.396  1.00  0.00    -0.394 OA
ATOM     13  H   UNL     1       8.127 190.413  37.672  1.00  0.00     0.210 HD
ENDBRANCH  11  12
ENDBRANCH  10  11
BRANCH  10  14
ATOM     14  N   UNL     1       8.460 194.134  37.470  1.00  0.00    -0.307 N 
ATOM     15  C   UNL     1       8.582 195.487  37.539  1.00  0.00     0.408 C 
ATOM     16  O   UNL     1       7.768 196.246  38.043  1.00  0.00    -0.225 OA
ATOM     17  H   UNL     1       9.334 193.659  37.290  1.00  0.00     0.168 HD
BRANCH  15  18
ATOM     18  O   UNL     1       9.764 195.852  36.993  1.00  0.00    -0.445 OA
BRANCH  18  19
ATOM     19  C   UNL     1      10.050 197.247  37.127  1.00  0.00     0.270 C 
BRANCH  19  20
ATOM     20  C   UNL     1      11.530 197.462  36.930  1.00  0.00    -0.011 A 
ATOM     21  C   UNL     1      12.440 197.150  37.949  1.00  0.00     0.007 A 
ATOM     22  C   UNL     1      12.022 197.947  35.708  1.00  0.00     0.007 A 
ATOM     23  C   UNL     1      13.812 197.330  37.754  1.00  0.00     0.000 A 
ATOM     24  C   UNL     1      13.392 198.128  35.515  1.00  0.00     0.000 A 
ATOM     25  C   UNL     1      14.287 197.820  36.539  1.00  0.00     0.000 A 
ENDBRANCH  19  20
ENDBRANCH  18  19
ENDBRANCH  15  18
ENDBRANCH  10  14
ENDBRANCH   7  10
ENDBRANCH   1   6
BRANCH   1  26
ATOM     26  C   UNL     1      10.640 190.989  40.785  1.00  0.00     0.243 C 
ATOM     27  O   UNL     1      10.286 190.124  39.982  1.00  0.00    -0.273 OA
ATOM     28  N   UNL     1      11.785 190.882  41.531  1.00  0.00    -0.342 N 
ATOM     29  H   UNL     1      11.987 191.546  42.276  1.00  0.00     0.164 HD
BRANCH  28  30
ATOM     30  C   UNL     1      12.640 189.695  41.472  1.00  0.00     0.175 C 
BRANCH  30  31
ATOM     31  C   UNL     1      13.915 189.977  40.659  1.00  0.00     0.070 C 
BRANCH  31  32
ATOM     32  C   UNL     1      14.585 188.727  40.136  1.00  0.00    -0.045 A 
ATOM     33  C   UNL     1      13.823 187.726  39.515  1.00  0.00     0.007 A 
ATOM     34  C   UNL     1      15.969 188.548  40.272  1.00  0.00     0.007 A 
ATOM     35  C   UNL     1      14.432 186.557  39.052  1.00  0.00     0.046 A 
ATOM     36  C   UNL     1      16.574 187.378  39.812  1.00  0.00     0.046 A 
ATOM     37  C   UNL     1      15.804 186.393  39.208  1.00  0.00     0.115 A 
BRANCH  37  38
ATOM     38  O   UNL     1      16.439 185.268  38.775  1.00  0.00    -0.508 OA
ATOM     39  H   UNL     1      15.784 184.555  38.692  1.00  0.00     0.293 HD
ENDBRANCH  37  38
ENDBRANCH  31  32
ENDBRANCH  30  31
BRANCH  30  40
ATOM     40  C   UNL     1      12.972 189.322  42.928  1.00  0.00     0.240 C 
ATOM     41  N   UNL     1      12.863 190.313  43.856  1.00  0.00    -0.368 N 
ATOM     42  O   UNL     1      13.324 188.190  43.259  1.00  0.00    -0.273 OA
ATOM     43  H   UNL     1      12.461 191.220  43.651  1.00  0.00     0.159 HD
ATOM     44  H   UNL     1      13.034 190.076  44.826  1.00  0.00     0.159 HD
ENDBRANCH  30  40
ENDBRANCH  28  30
ENDBRANCH   1  26
TORSDOF 16
ENDMDL
MODEL 4
REMARK VINA RESULT:      -6.9      4.656      9.433
REMARK SMILES CC(C)C[C@@H](NC(=O)[C@H](CO)NC(=O)OCc1ccccc1)C(=O)N[C@@H](Cc1ccc(O)cc1)C(N)=O
REMARK SMILES IDX 5 1 4 2 2 3 1 4 3 5 6 6 7 7 8 8 9 10 10 11 11 12 12 14 13 15
REMARK SMILES IDX 14 16 15 18 16 19 17 20 18 21 22 22 19 23 21 24 20 25 23 26
REMARK SMILES IDX 24 27 25 28 26 30 27 31 28 32 29 33 34 34 30 35 33 36 31 37
REMARK SMILES IDX 32 38 35 40 36 41 37 42
REMARK H PARENT 6 9 11 13 12 17 25 29 32 39 36 43 36 44
ROOT
ATOM      1  C   UNL     1      14.285 190.967  42.433  1.00  0.00     0.171 C 
ENDROOT
BRANCH   1   2
ATOM      2  C   UNL     1      15.348 189.863  42.300  1.00  0.00     0.038 C 
BRANCH   2   3
ATOM      3  C   UNL     1      14.840 188.437  41.988  1.00  0.00    -0.015 C 
ATOM      4  C   UNL     1      14.568 187.697  43.302  1.00  0.00     0.007 C 
ATOM      5  C   UNL     1      15.810 187.620  41.138  1.00  0.00     0.007 C 
ENDBRANCH   2   3
ENDBRANCH   1   2
BRANCH   1   6
ATOM      6  N   UNL     1      12.952 190.540  42.017  1.00  0.00    -0.342 N 
ATOM      7  C   UNL     1      12.089 191.394  41.367  1.00  0.00     0.245 C 
ATOM      8  O   UNL     1      12.439 192.492  40.938  1.00  0.00    -0.273 OA
ATOM      9  H   UNL     1      12.566 189.754  42.538  1.00  0.00     0.164 HD
BRANCH   7  10
ATOM     10  C   UNL     1      10.676 190.831  41.151  1.00  0.00     0.200 C 
BRANCH  10  11
ATOM     11  C   UNL     1      10.794 189.336  40.837  1.00  0.00     0.191 C 
BRANCH  11  12
ATOM     12  O   UNL     1       9.937 188.576  41.689  1.00  0.00    -0.394 OA
ATOM     13  H   UNL     1       9.830 187.698  41.284  1.00  0.00     0.210 HD
ENDBRANCH  11  12
ENDBRANCH  10  11
BRANCH  10  14
ATOM     14  N   UNL     1      10.050 191.568  40.059  1.00  0.00    -0.307 N 
ATOM     15  C   UNL     1       8.739 191.922  40.129  1.00  0.00     0.408 C 
ATOM     16  O   UNL     1       7.935 191.498  40.946  1.00  0.00    -0.225 OA
ATOM     17  H   UNL     1      10.615 192.217  39.527  1.00  0.00     0.168 HD
BRANCH  15  18
ATOM     18  O   UNL     1       8.478 192.844  39.176  1.00  0.00    -0.445 OA
BRANCH  18  19
ATOM     19  C   UNL     1       7.155 192.757  38.641  1.00  0.00     0.270 C 
BRANCH  19  20
ATOM     20  C   UNL     1       7.226 192.146  37.263  1.00  0.00    -0.011 A 
ATOM     21  C   UNL     1       8.242 191.239  36.934  1.00  0.00     0.007 A 
ATOM     22  C   UNL     1       6.253 192.453  36.298  1.00  0.00     0.007 A 
ATOM     23  C   UNL     1       8.291 190.660  35.664  1.00  0.00     0.000 A 
ATOM     24  C   UNL     1       6.305 191.874  35.029  1.00  0.00     0.000 A 
ATOM     25  C   UNL     1       7.325 190.979  34.712  1.00  0.00     0.000 A 
ENDBRANCH  19  20
ENDBRANCH  18  19
ENDBRANCH  15  18
ENDBRANCH  10  14
ENDBRANCH   7  10
ENDBRANCH   1   6
BRANCH   1  26
ATOM     26  C   UNL     1      14.188 191.531  43.863  1.00  0.00     0.243 C 
ATOM     27  O   UNL     1      14.896 192.462  44.251  1.00  0.00    -0.273 OA
ATOM     28  N   UNL     1      13.254 190.928  44.666  1.00  0.00    -0.342 N 
ATOM     29  H   UNL     1      12.775 190.082  44.364  1.00  0.00     0.164 HD
BRANCH  28  30
ATOM     30  C   UNL     1      13.074 191.310  46.068  1.00  0.00     0.175 C 
BRANCH  30  31
ATOM     31  C   UNL     1      11.596 191.605  46.371  1.00  0.00     0.070 C 
BRANCH  31  32
ATOM     32  C   UNL     1      11.057 192.808  45.630  1.00  0.00    -0.045 A 
ATOM     33  C   UNL     1      11.189 194.092  46.181  1.00  0.00     0.007 A 
ATOM     34  C   UNL     1      10.413 192.657  44.395  1.00  0.00     0.007 A 
ATOM     35  C   UNL     1      10.672 195.205  45.514  1.00  0.00     0.046 A 
ATOM     36  C   UNL     1       9.893 193.769  43.732  1.00  0.00     0.046 A 
ATOM     37  C   UNL     1      10.025 195.032  44.295  1.00  0.00     0.115 A 
BRANCH  37  38
ATOM     38  O   UNL     1       9.501 196.089  43.613  1.00  0.00    -0.508 OA
ATOM     39  H   UNL     1       9.784 196.031  42.686  1.00  0.00     0.293 HD
ENDBRANCH  37  38
ENDBRANCH  31  32
ENDBRANCH  30  31
BRANCH  30  40
ATOM     40  C   UNL     1      13.597 190.133  46.911  1.00  0.00     0.240 C 
ATOM     41  N   UNL     1      12.668 189.261  47.393  1.00  0.00    -0.368 N 
ATOM     42  O   UNL     1      14.793 189.972  47.155  1.00  0.00    -0.273 OA
ATOM     43  H   UNL     1      11.694 189.285  47.117  1.00  0.00     0.159 HD
ATOM     44  H   UNL     1      12.997 188.457  47.912  1.00  0.00     0.159 HD
ENDBRANCH  30  40
ENDBRANCH  28  30
ENDBRANCH   1  26
TORSDOF 16
ENDMDL
MODEL 5
REMARK VINA RESULT:      -6.9      3.293      9.784
REMARK SMILES CC(C)C[C@@H](NC(=O)[C@H](CO)NC(=O)OCc1ccccc1)C(=O)N[C@@H](Cc1ccc(O)cc1)C(N)=O
REMARK SMILES IDX 5 1 4 2 2 3 1 4 3 5 6 6 7 7 8 8 9 10 10 11 11 12 12 14 13 15
REMARK SMILES IDX 14 16 15 18 16 19 17 20 18 21 22 22 19 23 21 24 20 25 23 26
REMARK SMILES IDX 24 27 25 28 26 30 27 31 28 32 29 33 34 34 30 35 33 36 31 37
REMARK SMILES IDX 32 38 35 40 36 41 37 42
REMARK H PARENT 6 9 11 13 12 17 25 29 32 39 36 43 36 44
ROOT
ATOM      1  C   UNL     1       8.073 193.758  38.313  1.00  0.00     0.171 C 
ENDROOT
BRANCH   1   2
ATOM      2  C   UNL     1       6.939 192.721  38.221  1.00  0.00     0.038 C 
BRANCH   2   3
ATOM      3  C   UNL     1       6.729 192.034  36.852  1.00  0.00    -0.015 C 
ATOM      4  C   UNL     1       8.086 191.857  36.161  1.00  0.00     0.007 C 
ATOM      5  C   UNL     1       5.786 192.800  35.927  1.00  0.00     0.007 C 
ENDBRANCH   2   3
ENDBRANCH   1   2
BRANCH   1   6
ATOM      6  N   UNL     1       7.713 195.059  37.758  1.00  0.00    -0.342 N 
ATOM      7  C   UNL     1       8.666 195.932  37.285  1.00  0.00     0.245 C 
ATOM      8  O   UNL     1       9.843 195.610  37.130  1.00  0.00    -0.273 OA
ATOM      9  H   UNL     1       6.818 195.432  38.072  1.00  0.00     0.164 HD
BRANCH   7  10
ATOM     10  C   UNL     1       8.127 197.316  36.890  1.00  0.00     0.200 C 
BRANCH  10  11
ATOM     11  C   UNL     1       8.348 198.274  38.065  1.00  0.00     0.191 C 
BRANCH  11  12
ATOM     12  O   UNL     1       9.171 197.665  39.060  1.00  0.00    -0.394 OA
ATOM     13  H   UNL     1       9.309 196.740  38.795  1.00  0.00     0.210 HD
ENDBRANCH  11  12
ENDBRANCH  10  11
BRANCH  10  14
ATOM     14  N   UNL     1       6.714 197.181  36.556  1.00  0.00    -0.307 N 
ATOM     15  C   UNL     1       6.138 198.013  35.647  1.00  0.00     0.408 C 
ATOM     16  O   UNL     1       6.640 199.037  35.210  1.00  0.00    -0.225 OA
ATOM     17  H   UNL     1       6.298 196.259  36.580  1.00  0.00     0.168 HD
BRANCH  15  18
ATOM     18  O   UNL     1       4.941 197.504  35.279  1.00  0.00    -0.445 OA
BRANCH  18  19
ATOM     19  C   UNL     1       5.043 196.341  34.452  1.00  0.00     0.270 C 
BRANCH  19  20
ATOM     20  C   UNL     1       3.725 196.125  33.752  1.00  0.00    -0.011 A 
ATOM     21  C   UNL     1       2.571 196.799  34.174  1.00  0.00     0.007 A 
ATOM     22  C   UNL     1       3.640 195.269  32.643  1.00  0.00     0.007 A 
ATOM     23  C   UNL     1       1.357 196.612  33.509  1.00  0.00     0.000 A 
ATOM     24  C   UNL     1       2.426 195.082  31.980  1.00  0.00     0.000 A 
ATOM     25  C   UNL     1       1.284 195.753  32.415  1.00  0.00     0.000 A 
ENDBRANCH  19  20
ENDBRANCH  18  19
ENDBRANCH  15  18
ENDBRANCH  10  14
ENDBRANCH   7  10
ENDBRANCH   1   6
BRANCH   1  26
ATOM     26  C   UNL     1       8.571 193.967  39.755  1.00  0.00     0.243 C 
ATOM     27  O   UNL     1       7.941 194.634  40.577  1.00  0.00    -0.273 OA
ATOM     28  N   UNL     1       9.758 193.350  40.058  1.00  0.00    -0.342 N 
ATOM     29  H   UNL     1      10.320 192.914  39.329  1.00  0.00     0.164 HD
BRANCH  28  30
ATOM     30  C   UNL     1      10.394 193.493  41.368  1.00  0.00     0.175 C 
BRANCH  30  31
ATOM     31  C   UNL     1       9.674 192.638  42.424  1.00  0.00     0.070 C 
BRANCH  31  32
ATOM     32  C   UNL     1      10.231 192.808  43.819  1.00  0.00    -0.045 A 
ATOM     33  C   UNL     1      10.302 194.083  44.400  1.00  0.00     0.007 A 
ATOM     34  C   UNL     1      10.692 191.700  44.544  1.00  0.00     0.007 A 
ATOM     35  C   UNL     1      10.838 194.251  45.678  1.00  0.00     0.046 A 
ATOM     36  C   UNL     1      11.231 191.871  45.820  1.00  0.00     0.046 A 
ATOM     37  C   UNL     1      11.301 193.141  46.376  1.00  0.00     0.115 A 
BRANCH  37  38
ATOM     38  O   UNL     1      11.837 193.259  47.624  1.00  0.00    -0.508 OA
ATOM     39  H   UNL     1      12.803 193.188  47.555  1.00  0.00     0.293 HD
ENDBRANCH  37  38
ENDBRANCH  31  32
ENDBRANCH  30  31
BRANCH  30  40
ATOM     40  C   UNL     1      11.860 193.055  41.193  1.00  0.00     0.240 C 
ATOM     41  N   UNL     1      12.813 194.011  41.375  1.00  0.00    -0.368 N 
ATOM     42  O   UNL     1      12.176 191.903  40.898  1.00  0.00    -0.273 OA
ATOM     43  H   UNL     1      12.607 194.934  41.737  1.00  0.00     0.159 HD
ATOM     44  H   UNL     1      13.784 193.731  41.309  1.00  0.00     0.159 HD
ENDBRANCH  30  40
ENDBRANCH  28  30
ENDBRANCH   1  26
TORSDOF 16
ENDMDL
MODEL 6
REMARK VINA RESULT:      -6.8      3.190      8.602
REMARK SMILES CC(C)C[C@@H](NC(=O)[C@H](CO)NC(=O)OCc1ccccc1)C(=O)N[C@@H](Cc1ccc(O)cc1)C(N)=O
REMARK SMILES IDX 5 1 4 2 2 3 1 4 3 5 6 6 7 7 8 8 9 10 10 11 11 12 12 14 13 15
REMARK SMILES IDX 14 16 15 18 16 19 17 20 18 21 22 22 19 23 21 24 20 25 23 26
REMARK SMILES IDX 24 27 25 28 26 30 27 31 28 32 29 33 34 34 30 35 33 36 31 37
REMARK SMILES IDX 32 38 35 40 36 41 37 42
REMARK H PARENT 6 9 11 13 12 17 25 29 32 39 36 43 36 44
ROOT
ATOM      1  C   UNL     1       9.916 195.080  41.651  1.00  0.00     0.171 C 
ENDROOT
BRANCH   1   2
ATOM      2  C   UNL     1      10.651 196.366  42.069  1.00  0.00     0.038 C 
BRANCH   2   3
ATOM      3  C   UNL     1      11.474 196.307  43.375  1.00  0.00    -0.015 C 
ATOM      4  C   UNL     1      10.664 196.938  44.513  1.00  0.00     0.007 C 
ATOM      5  C   UNL     1      12.829 197.004  43.271  1.00  0.00     0.007 C 
ENDBRANCH   2   3
ENDBRANCH   1   2
BRANCH   1   6
ATOM      6  N   UNL     1       9.284 195.175  40.339  1.00  0.00    -0.342 N 
ATOM      7  C   UNL     1       8.222 194.373  39.988  1.00  0.00     0.245 C 
ATOM      8  O   UNL     1       7.626 193.666  40.800  1.00  0.00    -0.273 OA
ATOM      9  H   UNL     1       9.872 195.563  39.602  1.00  0.00     0.164 HD
BRANCH   7  10
ATOM     10  C   UNL     1       7.788 194.492  38.519  1.00  0.00     0.200 C 
BRANCH  10  11
ATOM     11  C   UNL     1       7.342 193.108  38.033  1.00  0.00     0.191 C 
BRANCH  11  12
ATOM     12  O   UNL     1       8.305 192.117  38.389  1.00  0.00    -0.394 OA
ATOM     13  H   UNL     1       8.137 191.869  39.315  1.00  0.00     0.210 HD
ENDBRANCH  11  12
ENDBRANCH  10  11
BRANCH  10  14
ATOM     14  N   UNL     1       8.916 195.001  37.746  1.00  0.00    -0.307 N 
ATOM     15  C   UNL     1       8.830 196.202  37.113  1.00  0.00     0.408 C 
ATOM     16  O   UNL     1       7.801 196.837  36.938  1.00  0.00    -0.225 OA
ATOM     17  H   UNL     1       9.853 194.771  38.049  1.00  0.00     0.168 HD
BRANCH  15  18
ATOM     18  O   UNL     1      10.068 196.595  36.742  1.00  0.00    -0.445 OA
BRANCH  18  19
ATOM     19  C   UNL     1      10.657 197.548  37.633  1.00  0.00     0.270 C 
BRANCH  19  20
ATOM     20  C   UNL     1      12.114 197.203  37.822  1.00  0.00    -0.011 A 
ATOM     21  C   UNL     1      12.520 196.368  38.872  1.00  0.00     0.007 A 
ATOM     22  C   UNL     1      13.082 197.685  36.928  1.00  0.00     0.007 A 
ATOM     23  C   UNL     1      13.866 196.033  39.031  1.00  0.00     0.000 A 
ATOM     24  C   UNL     1      14.427 197.351  37.089  1.00  0.00     0.000 A 
ATOM     25  C   UNL     1      14.819 196.526  38.142  1.00  0.00     0.000 A 
ENDBRANCH  19  20
ENDBRANCH  18  19
ENDBRANCH  15  18
ENDBRANCH  10  14
ENDBRANCH   7  10
ENDBRANCH   1   6
BRANCH   1  26
ATOM     26  C   UNL     1      10.832 193.842  41.660  1.00  0.00     0.243 C 
ATOM     27  O   UNL     1      11.928 193.833  41.098  1.00  0.00    -0.273 OA
ATOM     28  N   UNL     1      10.343 192.759  42.344  1.00  0.00    -0.342 N 
ATOM     29  H   UNL     1       9.385 192.748  42.688  1.00  0.00     0.164 HD
BRANCH  28  30
ATOM     30  C   UNL     1      11.067 191.487  42.403  1.00  0.00     0.175 C 
BRANCH  30  31
ATOM     31  C   UNL     1      11.347 191.082  43.860  1.00  0.00     0.070 C 
BRANCH  31  32
ATOM     32  C   UNL     1      11.841 192.223  44.718  1.00  0.00    -0.045 A 
ATOM     33  C   UNL     1      11.018 192.759  45.721  1.00  0.00     0.007 A 
ATOM     34  C   UNL     1      13.118 192.766  44.519  1.00  0.00     0.007 A 
ATOM     35  C   UNL     1      11.459 193.830  46.501  1.00  0.00     0.046 A 
ATOM     36  C   UNL     1      13.554 193.839  45.297  1.00  0.00     0.046 A 
ATOM     37  C   UNL     1      12.724 194.363  46.279  1.00  0.00     0.115 A 
BRANCH  37  38
ATOM     38  O   UNL     1      13.192 195.411  47.014  1.00  0.00    -0.508 OA
ATOM     39  H   UNL     1      13.485 195.078  47.878  1.00  0.00     0.293 HD
ENDBRANCH  37  38
ENDBRANCH  31  32
ENDBRANCH  30  31
BRANCH  30  40
ATOM     40  C   UNL     1      10.182 190.448  41.689  1.00  0.00     0.240 C 
ATOM     41  N   UNL     1       9.315 190.920  40.750  1.00  0.00    -0.368 N 
ATOM     42  O   UNL     1      10.238 189.245  41.943  1.00  0.00    -0.273 OA
ATOM     43  H   UNL     1       9.324 191.879  40.424  1.00  0.00     0.159 HD
ATOM     44  H   UNL     1       8.758 190.247  40.239  1.00  0.00     0.159 HD
ENDBRANCH  30  40
ENDBRANCH  28  30
ENDBRANCH   1  26
TORSDOF 16
ENDMDL
MODEL 7
REMARK VINA RESULT:      -6.8      3.354      7.485
REMARK SMILES CC(C)C[C@@H](NC(=O)[C@H](CO)NC(=O)OCc1ccccc1)C(=O)N[C@@H](Cc1ccc(O)cc1)C(N)=O
REMARK SMILES IDX 5 1 4 2 2 3 1 4 3 5 6 6 7 7 8 8 9 10 10 11 11 12 12 14 13 15
REMARK SMILES IDX 14 16 15 18 16 19 17 20 18 21 22 22 19 23 21 24 20 25 23 26
REMARK SMILES IDX 24 27 25 28 26 30 27 31 28 32 29 33 34 34 30 35 33 36 31 37
REMARK SMILES IDX 32 38 35 40 36 41 37 42
REMARK H PARENT 6 9 11 13 12 17 25 29 32 39 36 43 36 44
ROOT
ATOM      1  C   UNL     1      10.511 195.695  39.639  1.00  0.00     0.171 C 
ENDROOT
BRANCH   1   2
ATOM      2  C   UNL     1      10.449 195.918  38.118  1.00  0.00     0.038 C 
BRANCH   2   3
ATOM      3  C   UNL     1       9.418 196.947  37.603  1.00  0.00    -0.015 C 
ATOM      4  C   UNL     1       9.590 198.263  38.370  1.00  0.00     0.007 C 
ATOM      5  C   UNL     1       7.972 196.473  37.730  1.00  0.00     0.007 C 
ENDBRANCH   2   3
ENDBRANCH   1   2
BRANCH   1   6
ATOM      6  N   UNL     1      10.031 194.380  40.051  1.00  0.00    -0.342 N 
ATOM      7  C   UNL     1       9.569 194.145  41.327  1.00  0.00     0.245 C 
ATOM      8  O   UNL     1       9.361 195.050  42.134  1.00  0.00    -0.273 OA
ATOM      9  H   UNL     1      10.392 193.596  39.508  1.00  0.00     0.164 HD
BRANCH   7  10
ATOM     10  C   UNL     1       9.259 192.672  41.634  1.00  0.00     0.200 C 
BRANCH  10  11
ATOM     11  C   UNL     1      10.585 191.916  41.763  1.00  0.00     0.191 C 
BRANCH  11  12
ATOM     12  O   UNL     1      11.062 191.517  40.478  1.00  0.00    -0.394 OA
ATOM     13  H   UNL     1      10.308 191.137  39.995  1.00  0.00     0.210 HD
ENDBRANCH  11  12
ENDBRANCH  10  11
BRANCH  10  14
ATOM     14  N   UNL     1       8.432 192.142  40.556  1.00  0.00    -0.307 N 
ATOM     15  C   UNL     1       7.097 192.400  40.521  1.00  0.00     0.408 C 
ATOM     16  O   UNL     1       6.445 192.874  41.438  1.00  0.00    -0.225 OA
ATOM     17  H   UNL     1       8.847 192.030  39.640  1.00  0.00     0.168 HD
BRANCH  15  18
ATOM     18  O   UNL     1       6.619 192.082  39.297  1.00  0.00    -0.445 OA
BRANCH  18  19
ATOM     19  C   UNL     1       7.057 192.968  38.263  1.00  0.00     0.270 C 
BRANCH  19  20
ATOM     20  C   UNL     1       7.154 192.197  36.970  1.00  0.00    -0.011 A 
ATOM     21  C   UNL     1       8.168 191.248  36.777  1.00  0.00     0.007 A 
ATOM     22  C   UNL     1       6.209 192.393  35.951  1.00  0.00     0.007 A 
ATOM     23  C   UNL     1       8.241 190.521  35.587  1.00  0.00     0.000 A 
ATOM     24  C   UNL     1       6.284 191.667  34.762  1.00  0.00     0.000 A 
ATOM     25  C   UNL     1       7.302 190.732  34.580  1.00  0.00     0.000 A 
ENDBRANCH  19  20
ENDBRANCH  18  19
ENDBRANCH  15  18
ENDBRANCH  10  14
ENDBRANCH   7  10
ENDBRANCH   1   6
BRANCH   1  26
ATOM     26  C   UNL     1      11.927 195.896  40.212  1.00  0.00     0.243 C 
ATOM     27  O   UNL     1      12.545 196.953  40.080  1.00  0.00    -0.273 OA
ATOM     28  N   UNL     1      12.442 194.817  40.885  1.00  0.00    -0.342 N 
ATOM     29  H   UNL     1      11.967 193.917  40.869  1.00  0.00     0.164 HD
BRANCH  28  30
ATOM     30  C   UNL     1      13.796 194.826  41.443  1.00  0.00     0.175 C 
BRANCH  30  31
ATOM     31  C   UNL     1      13.816 194.193  42.844  1.00  0.00     0.070 C 
BRANCH  31  32
ATOM     32  C   UNL     1      12.822 194.813  43.799  1.00  0.00    -0.045 A 
ATOM     33  C   UNL     1      11.866 194.011  44.441  1.00  0.00     0.007 A 
ATOM     34  C   UNL     1      12.835 196.192  44.048  1.00  0.00     0.007 A 
ATOM     35  C   UNL     1      10.929 194.580  45.306  1.00  0.00     0.046 A 
ATOM     36  C   UNL     1      11.895 196.760  44.909  1.00  0.00     0.046 A 
ATOM     37  C   UNL     1      10.951 195.953  45.529  1.00  0.00     0.115 A 
BRANCH  37  38
ATOM     38  O   UNL     1      10.052 196.551  46.361  1.00  0.00    -0.508 OA
ATOM     39  H   UNL     1      10.487 196.731  47.210  1.00  0.00     0.293 HD
ENDBRANCH  37  38
ENDBRANCH  31  32
ENDBRANCH  30  31
BRANCH  30  40
ATOM     40  C   UNL     1      14.680 194.040  40.457  1.00  0.00     0.240 C 
ATOM     41  N   UNL     1      15.177 192.849  40.893  1.00  0.00    -0.368 N 
ATOM     42  O   UNL     1      14.940 194.451  39.327  1.00  0.00    -0.273 OA
ATOM     43  H   UNL     1      14.891 192.417  41.763  1.00  0.00     0.159 HD
ATOM     44  H   UNL     1      15.723 192.297  40.244  1.00  0.00     0.159 HD
ENDBRANCH  30  40
ENDBRANCH  28  30
ENDBRANCH   1  26
TORSDOF 16
ENDMDL
MODEL 8
REMARK VINA RESULT:      -6.7      2.957      6.237
REMARK SMILES CC(C)C[C@@H](NC(=O)[C@H](CO)NC(=O)OCc1ccccc1)C(=O)N[C@@H](Cc1ccc(O)cc1)C(N)=O
REMARK SMILES IDX 5 1 4 2 2 3 1 4 3 5 6 6 7 7 8 8 9 10 10 11 11 12 12 14 13 15
REMARK SMILES IDX 14 16 15 18 16 19 17 20 18 21 22 22 19 23 21 24 20 25 23 26
REMARK SMILES IDX 24 27 25 28 26 30 27 31 28 32 29 33 34 34 30 35 33 36 31 37
REMARK SMILES IDX 32 38 35 40 36 41 37 42
REMARK H PARENT 6 9 11 13 12 17 25 29 32 39 36 43 36 44
ROOT
ATOM      1  C   UNL     1      11.612 194.963  40.318  1.00  0.00     0.171 C 
ENDROOT
BRANCH   1   2
ATOM      2  C   UNL     1      12.418 195.867  41.267  1.00  0.00     0.038 C 
BRANCH   2   3
ATOM      3  C   UNL     1      13.804 195.350  41.714  1.00  0.00    -0.015 C 
ATOM      4  C   UNL     1      14.408 194.489  40.599  1.00  0.00     0.007 C 
ATOM      5  C   UNL     1      13.762 194.543  43.010  1.00  0.00     0.007 C 
ENDBRANCH   2   3
ENDBRANCH   1   2
BRANCH   1   6
ATOM      6  N   UNL     1      10.506 194.274  40.976  1.00  0.00    -0.342 N 
ATOM      7  C   UNL     1      10.585 192.942  41.317  1.00  0.00     0.245 C 
ATOM      8  O   UNL     1      11.634 192.302  41.260  1.00  0.00    -0.273 OA
ATOM      9  H   UNL     1       9.587 194.691  40.832  1.00  0.00     0.164 HD
BRANCH   7  10
ATOM     10  C   UNL     1       9.276 192.341  41.852  1.00  0.00     0.200 C 
BRANCH  10  11
ATOM     11  C   UNL     1       9.623 191.143  42.743  1.00  0.00     0.191 C 
BRANCH  11  12
ATOM     12  O   UNL     1       9.802 189.967  41.954  1.00  0.00    -0.394 OA
ATOM     13  H   UNL     1      10.492 190.162  41.297  1.00  0.00     0.210 HD
ENDBRANCH  11  12
ENDBRANCH  10  11
BRANCH  10  14
ATOM     14  N   UNL     1       8.450 191.952  40.714  1.00  0.00    -0.307 N 
ATOM     15  C   UNL     1       7.177 192.417  40.596  1.00  0.00     0.408 C 
ATOM     16  O   UNL     1       6.547 192.984  41.475  1.00  0.00    -0.225 OA
ATOM     17  H   UNL     1       8.902 191.780  39.826  1.00  0.00     0.168 HD
BRANCH  15  18
ATOM     18  O   UNL     1       6.737 192.184  39.339  1.00  0.00    -0.445 OA
BRANCH  18  19
ATOM     19  C   UNL     1       7.470 192.893  38.335  1.00  0.00     0.270 C 
BRANCH  19  20
ATOM     20  C   UNL     1       7.313 192.173  37.019  1.00  0.00    -0.011 A 
ATOM     21  C   UNL     1       8.265 191.234  36.600  1.00  0.00     0.007 A 
ATOM     22  C   UNL     1       6.193 192.409  36.208  1.00  0.00     0.007 A 
ATOM     23  C   UNL     1       8.105 190.554  35.390  1.00  0.00     0.000 A 
ATOM     24  C   UNL     1       6.035 191.730  34.999  1.00  0.00     0.000 A 
ATOM     25  C   UNL     1       6.992 190.803  34.590  1.00  0.00     0.000 A 
ENDBRANCH  19  20
ENDBRANCH  18  19
ENDBRANCH  15  18
ENDBRANCH  10  14
ENDBRANCH   7  10
ENDBRANCH   1   6
BRANCH   1  26
ATOM     26  C   UNL     1      11.052 195.726  39.103  1.00  0.00     0.243 C 
ATOM     27  O   UNL     1      10.039 195.359  38.507  1.00  0.00    -0.273 OA
ATOM     28  N   UNL     1      11.757 196.846  38.743  1.00  0.00    -0.342 N 
ATOM     29  H   UNL     1      12.658 197.055  39.168  1.00  0.00     0.164 HD
BRANCH  28  30
ATOM     30  C   UNL     1      11.388 197.653  37.578  1.00  0.00     0.175 C 
BRANCH  30  31
ATOM     31  C   UNL     1      10.534 198.861  37.996  1.00  0.00     0.070 C 
BRANCH  31  32
ATOM     32  C   UNL     1       9.078 198.732  37.613  1.00  0.00    -0.045 A 
ATOM     33  C   UNL     1       8.706 197.952  36.507  1.00  0.00     0.007 A 
ATOM     34  C   UNL     1       8.084 199.395  38.346  1.00  0.00     0.007 A 
ATOM     35  C   UNL     1       7.365 197.848  36.132  1.00  0.00     0.046 A 
ATOM     36  C   UNL     1       6.745 199.293  37.967  1.00  0.00     0.046 A 
ATOM     37  C   UNL     1       6.396 198.524  36.865  1.00  0.00     0.115 A 
BRANCH  37  38
ATOM     38  O   UNL     1       5.076 198.455  36.532  1.00  0.00    -0.508 OA
ATOM     39  H   UNL     1       4.847 199.240  36.008  1.00  0.00     0.293 HD
ENDBRANCH  37  38
ENDBRANCH  31  32
ENDBRANCH  30  31
BRANCH  30  40
ATOM     40  C   UNL     1      12.706 198.097  36.918  1.00  0.00     0.240 C 
ATOM     41  N   UNL     1      13.849 197.890  37.630  1.00  0.00    -0.368 N 
ATOM     42  O   UNL     1      12.747 198.619  35.805  1.00  0.00    -0.273 OA
ATOM     43  H   UNL     1      13.875 197.355  38.490  1.00  0.00     0.159 HD
ATOM     44  H   UNL     1      14.730 198.134  37.194  1.00  0.00     0.159 HD
ENDBRANCH  30  40
ENDBRANCH  28  30
ENDBRANCH   1  26
TORSDOF 16
ENDMDL
MODEL 9
REMARK VINA RESULT:      -6.7      4.752     10.281
REMARK SMILES CC(C)C[C@@H](NC(=O)[C@H](CO)NC(=O)OCc1ccccc1)C(=O)N[C@@H](Cc1ccc(O)cc1)C(N)=O
REMARK SMILES IDX 5 1 4 2 2 3 1 4 3 5 6 6 7 7 8 8 9 10 10 11 11 12 12 14 13 15
REMARK SMILES IDX 14 16 15 18 16 19 17 20 18 21 22 22 19 23 21 24 20 25 23 26
REMARK SMILES IDX 24 27 25 28 26 30 27 31 28 32 29 33 34 34 30 35 33 36 31 37
REMARK SMILES IDX 32 38 35 40 36 41 37 42
REMARK H PARENT 6 9 11 13 12 17 25 29 32 39 36 43 36 44
ROOT
ATOM      1  C   UNL     1      13.635 190.552  42.015  1.00  0.00     0.171 C 
ENDROOT
BRANCH   1   2
ATOM      2  C   UNL     1      14.799 190.936  41.085  1.00  0.00     0.038 C 
BRANCH   2   3
ATOM      3  C   UNL     1      15.875 191.882  41.666  1.00  0.00    -0.015 C 
ATOM      4  C   UNL     1      15.637 193.301  41.140  1.00  0.00     0.007 C 
ATOM      5  C   UNL     1      17.303 191.452  41.336  1.00  0.00     0.007 C 
ENDBRANCH   2   3
ENDBRANCH   1   2
BRANCH   1   6
ATOM      6  N   UNL     1      12.384 191.228  41.685  1.00  0.00    -0.342 N 
ATOM      7  C   UNL     1      11.974 192.358  42.357  1.00  0.00     0.245 C 
ATOM      8  O   UNL     1      12.703 192.968  43.137  1.00  0.00    -0.273 OA
ATOM      9  H   UNL     1      11.683 190.645  41.230  1.00  0.00     0.164 HD
BRANCH   7  10
ATOM     10  C   UNL     1      10.562 192.841  41.992  1.00  0.00     0.200 C 
BRANCH  10  11
ATOM     11  C   UNL     1       9.594 192.369  43.082  1.00  0.00     0.191 C 
BRANCH  11  12
ATOM     12  O   UNL     1      10.122 191.231  43.763  1.00  0.00    -0.394 OA
ATOM     13  H   UNL     1       9.427 190.902  44.358  1.00  0.00     0.210 HD
ENDBRANCH  11  12
ENDBRANCH  10  11
BRANCH  10  14
ATOM     14  N   UNL     1      10.214 192.301  40.683  1.00  0.00    -0.307 N 
ATOM     15  C   UNL     1       8.992 191.743  40.471  1.00  0.00     0.408 C 
ATOM     16  O   UNL     1       8.190 191.445  41.343  1.00  0.00    -0.225 OA
ATOM     17  H   UNL     1      10.607 192.738  39.860  1.00  0.00     0.168 HD
BRANCH  15  18
ATOM     18  O   UNL     1       8.793 191.608  39.141  1.00  0.00    -0.445 OA
BRANCH  18  19
ATOM     19  C   UNL     1       7.784 192.480  38.621  1.00  0.00     0.270 C 
BRANCH  19  20
ATOM     20  C   UNL     1       7.442 192.046  37.217  1.00  0.00    -0.011 A 
ATOM     21  C   UNL     1       8.125 190.983  36.611  1.00  0.00     0.007 A 
ATOM     22  C   UNL     1       6.409 192.679  36.509  1.00  0.00     0.007 A 
ATOM     23  C   UNL     1       7.790 190.570  35.319  1.00  0.00     0.000 A 
ATOM     24  C   UNL     1       6.077 192.267  35.217  1.00  0.00     0.000 A 
ATOM     25  C   UNL     1       6.769 191.213  34.623  1.00  0.00     0.000 A 
ENDBRANCH  19  20
ENDBRANCH  18  19
ENDBRANCH  15  18
ENDBRANCH  10  14
ENDBRANCH   7  10
ENDBRANCH   1   6
BRANCH   1  26
ATOM     26  C   UNL     1      13.373 189.034  42.043  1.00  0.00     0.243 C 
ATOM     27  O   UNL     1      12.267 188.554  41.789  1.00  0.00    -0.273 OA
ATOM     28  N   UNL     1      14.459 188.260  42.361  1.00  0.00    -0.342 N 
ATOM     29  H   UNL     1      15.324 188.685  42.690  1.00  0.00     0.164 HD
BRANCH  28  30
ATOM     30  C   UNL     1      14.365 186.804  42.482  1.00  0.00     0.175 C 
BRANCH  30  31
ATOM     31  C   UNL     1      15.529 186.116  41.749  1.00  0.00     0.070 C 
BRANCH  31  32
ATOM     32  C   UNL     1      16.157 186.975  40.677  1.00  0.00    -0.045 A 
ATOM     33  C   UNL     1      15.456 187.253  39.494  1.00  0.00     0.007 A 
ATOM     34  C   UNL     1      17.449 187.495  40.843  1.00  0.00     0.007 A 
ATOM     35  C   UNL     1      16.040 188.026  38.488  1.00  0.00     0.046 A 
ATOM     36  C   UNL     1      18.033 188.264  39.836  1.00  0.00     0.046 A 
ATOM     37  C   UNL     1      17.327 188.522  38.668  1.00  0.00     0.115 A 
BRANCH  37  38
ATOM     38  O   UNL     1      17.938 189.276  37.711  1.00  0.00    -0.508 OA
ATOM     39  H   UNL     1      18.889 189.079  37.721  1.00  0.00     0.293 HD
ENDBRANCH  37  38
ENDBRANCH  31  32
ENDBRANCH  30  31
BRANCH  30  40
ATOM     40  C   UNL     1      14.384 186.489  43.989  1.00  0.00     0.240 C 
ATOM     41  N   UNL     1      14.486 185.177  44.342  1.00  0.00    -0.368 N 
ATOM     42  O   UNL     1      14.309 187.365  44.850  1.00  0.00    -0.273 OA
ATOM     43  H   UNL     1      14.674 184.439  43.674  1.00  0.00     0.159 HD
ATOM     44  H   UNL     1      14.546 184.955  45.327  1.00  0.00     0.159 HD
ENDBRANCH  30  40
ENDBRANCH  28  30
ENDBRANCH   1  26
TORSDOF 16
ENDMDL
MODEL 10
REMARK VINA RESULT:      -6.6      3.010      6.098
REMARK SMILES CC(C)C[C@@H](NC(=O)[C@H](CO)NC(=O)OCc1ccccc1)C(=O)N[C@@H](Cc1ccc(O)cc1)C(N)=O
REMARK SMILES IDX 5 1 4 2 2 3 1 4 3 5 6 6 7 7 8 8 9 10 10 11 11 12 12 14 13 15
REMARK SMILES IDX 14 16 15 18 16 19 17 20 18 21 22 22 19 23 21 24 20 25 23 26
REMARK SMILES IDX 24 27 25 28 26 30 27 31 28 32 29 33 34 34 30 35 33 36 31 37
REMARK SMILES IDX 32 38 35 40 36 41 37 42
REMARK H PARENT 6 9 11 13 12 17 25 29 32 39 36 43 36 44
ROOT
ATOM      1  C   UNL     1      11.073 193.991  40.982  1.00  0.00     0.171 C 
ENDROOT
BRANCH   1   2
ATOM      2  C   UNL     1      11.656 195.107  41.866  1.00  0.00     0.038 C 
BRANCH   2   3
ATOM      3  C   UNL     1      12.389 196.260  41.144  1.00  0.00    -0.015 C 
ATOM      4  C   UNL     1      11.537 197.531  41.225  1.00  0.00     0.007 C 
ATOM      5  C   UNL     1      12.707 195.956  39.682  1.00  0.00     0.007 C 
ENDBRANCH   2   3
ENDBRANCH   1   2
BRANCH   1   6
ATOM      6  N   UNL     1      11.254 192.656  41.542  1.00  0.00    -0.342 N 
ATOM      7  C   UNL     1      12.335 191.872  41.207  1.00  0.00     0.245 C 
ATOM      8  O   UNL     1      13.296 192.302  40.571  1.00  0.00    -0.273 OA
ATOM      9  H   UNL     1      10.402 192.203  41.870  1.00  0.00     0.164 HD
BRANCH   7  10
ATOM     10  C   UNL     1      12.282 190.439  41.760  1.00  0.00     0.200 C 
BRANCH  10  11
ATOM     11  C   UNL     1      11.252 189.646  40.948  1.00  0.00     0.191 C 
BRANCH  11  12
ATOM     12  O   UNL     1      10.348 188.964  41.817  1.00  0.00    -0.394 OA
ATOM     13  H   UNL     1      10.882 188.427  42.427  1.00  0.00     0.210 HD
ENDBRANCH  11  12
ENDBRANCH  10  11
BRANCH  10  14
ATOM     14  N   UNL     1      11.928 190.504  43.173  1.00  0.00    -0.307 N 
ATOM     15  C   UNL     1      12.897 190.620  44.121  1.00  0.00     0.408 C 
ATOM     16  O   UNL     1      14.094 190.463  43.932  1.00  0.00    -0.225 OA
ATOM     17  H   UNL     1      11.054 190.942  43.433  1.00  0.00     0.168 HD
BRANCH  15  18
ATOM     18  O   UNL     1      12.326 190.972  45.294  1.00  0.00    -0.445 OA
BRANCH  18  19
ATOM     19  C   UNL     1      11.034 191.569  45.146  1.00  0.00     0.270 C 
BRANCH  19  20
ATOM     20  C   UNL     1      11.064 192.952  45.747  1.00  0.00    -0.011 A 
ATOM     21  C   UNL     1      11.606 193.167  47.022  1.00  0.00     0.007 A 
ATOM     22  C   UNL     1      10.581 194.053  45.024  1.00  0.00     0.007 A 
ATOM     23  C   UNL     1      11.652 194.452  47.566  1.00  0.00     0.000 A 
ATOM     24  C   UNL     1      10.626 195.337  45.569  1.00  0.00     0.000 A 
ATOM     25  C   UNL     1      11.160 195.536  46.841  1.00  0.00     0.000 A 
ENDBRANCH  19  20
ENDBRANCH  18  19
ENDBRANCH  15  18
ENDBRANCH  10  14
ENDBRANCH   7  10
ENDBRANCH   1   6
BRANCH   1  26
ATOM     26  C   UNL     1       9.575 194.192  40.682  1.00  0.00     0.243 C 
ATOM     27  O   UNL     1       8.766 194.496  41.560  1.00  0.00    -0.273 OA
ATOM     28  N   UNL     1       9.214 194.017  39.371  1.00  0.00    -0.342 N 
ATOM     29  H   UNL     1       9.875 193.642  38.693  1.00  0.00     0.164 HD
BRANCH  28  30
ATOM     30  C   UNL     1       7.822 194.119  38.931  1.00  0.00     0.175 C 
BRANCH  30  31
ATOM     31  C   UNL     1       7.731 194.793  37.551  1.00  0.00     0.070 C 
BRANCH  31  32
ATOM     32  C   UNL     1       7.910 196.293  37.600  1.00  0.00    -0.045 A 
ATOM     33  C   UNL     1       9.157 196.844  37.933  1.00  0.00     0.007 A 
ATOM     34  C   UNL     1       6.835 197.150  37.325  1.00  0.00     0.007 A 
ATOM     35  C   UNL     1       9.323 198.229  38.004  1.00  0.00     0.046 A 
ATOM     36  C   UNL     1       7.002 198.533  37.401  1.00  0.00     0.046 A 
ATOM     37  C   UNL     1       8.240 199.061  37.740  1.00  0.00     0.115 A 
BRANCH  37  38
ATOM     38  O   UNL     1       8.356 200.418  37.804  1.00  0.00    -0.508 OA
ATOM     39  H   UNL     1       8.994 200.706  37.130  1.00  0.00     0.293 HD
ENDBRANCH  37  38
ENDBRANCH  31  32
ENDBRANCH  30  31
BRANCH  30  40
ATOM     40  C   UNL     1       7.269 192.683  38.893  1.00  0.00     0.240 C 
ATOM     41  N   UNL     1       6.874 192.144  40.080  1.00  0.00    -0.368 N 
ATOM     42  O   UNL     1       7.183 192.033  37.851  1.00  0.00    -0.273 OA
ATOM     43  H   UNL     1       6.812 192.682  40.936  1.00  0.00     0.159 HD
ATOM     44  H   UNL     1       6.466 191.218  40.069  1.00  0.00     0.159 HD
ENDBRANCH  30  40
ENDBRANCH  28  30
ENDBRANCH   1  26
TORSDOF 16
ENDMDL
