MODEL 1
REMARK VINA RESULT:     -10.0      0.000      0.000
REMARK SMILES Brc1cccc(COc2ccc([C@H]3C[C@@H]3NCCC3CCCCC3)cc2)c1
REMARK SMILES IDX 9 1 10 2 11 3 12 4 25 5 26 6 8 7 7 8 6 9 2 10 3 11 27 12
REMARK SMILES IDX 4 13 5 14 1 15 13 16 14 17 15 18 16 19 17 21 18 22 19 23
REMARK SMILES IDX 20 24 24 25 21 26 23 27 22 28
REMARK H PARENT 16 20
ROOT
ATOM      1  C   UNL     1      51.652 156.122  28.715  1.00  0.00     0.119 A 
ATOM      2  C   UNL     1      52.525 157.071  28.185  1.00  0.00     0.047 A 
ATOM      3  C   UNL     1      53.166 156.850  26.962  1.00  0.00     0.008 A 
ATOM      4  C   UNL     1      52.965 155.664  26.238  1.00  0.00    -0.043 A 
ATOM      5  C   UNL     1      52.078 154.721  26.786  1.00  0.00     0.008 A 
ATOM      6  C   UNL     1      51.428 154.942  28.009  1.00  0.00     0.047 A 
ENDROOT
BRANCH   1   7
ATOM      7  O   UNL     1      51.101 156.465  29.916  1.00  0.00    -0.489 OA
BRANCH   7   8
ATOM      8  C   UNL     1      49.713 156.794  29.923  1.00  0.00     0.265 C 
BRANCH   8   9
ATOM      9  C   UNL     1      49.585 158.247  30.313  1.00  0.00    -0.010 A 
ATOM     10  C   UNL     1      50.614 160.389  30.800  1.00  0.00     0.018 A 
ATOM     11  C   UNL     1      49.359 160.959  31.008  1.00  0.00     0.016 A 
ATOM     12  C   UNL     1      50.733 159.043  30.451  1.00  0.00     0.023 A 
ATOM     13  C   UNL     1      48.213 160.177  30.864  1.00  0.00     0.002 A 
ATOM     14  C   UNL     1      48.325 158.829  30.515  1.00  0.00     0.007 A 
ATOM     15  Br  UNL     1      52.168 161.449  30.990  1.00  0.00    -0.051 Br
ENDBRANCH   8   9
ENDBRANCH   7   8
ENDBRANCH   1   7
BRANCH   4  16
ATOM     16  C   UNL     1      53.646 155.415  24.913  1.00  0.00     0.038 C 
ATOM     17  C   UNL     1      54.762 156.315  24.440  1.00  0.00     0.029 C 
ATOM     18  C   UNL     1      55.080 154.921  24.888  1.00  0.00     0.061 C 
BRANCH  18  19
ATOM     19  N   UNL     1      55.469 153.909  23.895  1.00  0.00    -0.313 NA
ATOM     20  H   UNL     1      56.152 154.306  23.251  1.00  0.00     0.122 HD
BRANCH  19  21
ATOM     21  C   UNL     1      54.322 153.408  23.142  1.00  0.00     0.081 C 
BRANCH  21  22
ATOM     22  C   UNL     1      53.938 151.965  23.508  1.00  0.00     0.019 C 
BRANCH  22  23
ATOM     23  C   UNL     1      54.504 151.482  24.865  1.00  0.00    -0.010 C 
ATOM     24  C   UNL     1      53.609 151.866  26.059  1.00  0.00     0.003 C 
ATOM     25  C   UNL     1      54.733 149.958  24.863  1.00  0.00     0.003 C 
ATOM     26  C   UNL     1      52.316 151.053  26.142  1.00  0.00     0.000 C 
ATOM     27  C   UNL     1      53.432 149.161  24.901  1.00  0.00     0.000 C 
ATOM     28  C   UNL     1      52.581 149.553  26.104  1.00  0.00     0.000 C 
ENDBRANCH  22  23
ENDBRANCH  21  22
ENDBRANCH  19  21
ENDBRANCH  18  19
ENDBRANCH   4  16
TORSDOF 8
ENDMDL
MODEL 2
REMARK VINA RESULT:      -9.9      1.002      1.350
REMARK SMILES Brc1cccc(COc2ccc([C@H]3C[C@@H]3NCCC3CCCCC3)cc2)c1
REMARK SMILES IDX 9 1 10 2 11 3 12 4 25 5 26 6 8 7 7 8 6 9 2 10 3 11 27 12
REMARK SMILES IDX 4 13 5 14 1 15 13 16 14 17 15 18 16 19 17 21 18 22 19 23
REMARK SMILES IDX 20 24 24 25 21 26 23 27 22 28
REMARK H PARENT 16 20
ROOT
ATOM      1  C   UNL     1      51.655 156.177  28.792  1.00  0.00     0.119 A 
ATOM      2  C   UNL     1      52.542 157.104  28.246  1.00  0.00     0.047 A 
ATOM      3  C   UNL     1      53.169 156.857  27.020  1.00  0.00     0.008 A 
ATOM      4  C   UNL     1      52.940 155.668  26.311  1.00  0.00    -0.043 A 
ATOM      5  C   UNL     1      52.039 154.748  26.875  1.00  0.00     0.008 A 
ATOM      6  C   UNL     1      51.403 154.994  28.100  1.00  0.00     0.047 A 
ENDROOT
BRANCH   1   7
ATOM      7  O   UNL     1      51.119 156.543  29.994  1.00  0.00    -0.489 OA
BRANCH   7   8
ATOM      8  C   UNL     1      49.913 157.304  29.962  1.00  0.00     0.265 C 
BRANCH   8   9
ATOM      9  C   UNL     1      50.218 158.676  30.511  1.00  0.00    -0.010 A 
ATOM     10  C   UNL     1      49.649 160.528  31.971  1.00  0.00     0.018 A 
ATOM     11  C   UNL     1      50.790 161.217  31.564  1.00  0.00     0.016 A 
ATOM     12  C   UNL     1      49.361 159.264  31.455  1.00  0.00     0.023 A 
ATOM     13  C   UNL     1      51.652 160.636  30.634  1.00  0.00     0.002 A 
ATOM     14  C   UNL     1      51.370 159.371  30.113  1.00  0.00     0.007 A 
ATOM     15  Br  UNL     1      48.482 161.312  33.235  1.00  0.00    -0.051 Br
ENDBRANCH   8   9
ENDBRANCH   7   8
ENDBRANCH   1   7
BRANCH   4  16
ATOM     16  C   UNL     1      53.606 155.392  24.983  1.00  0.00     0.038 C 
ATOM     17  C   UNL     1      54.676 156.316  24.452  1.00  0.00     0.029 C 
ATOM     18  C   UNL     1      55.058 154.955  24.950  1.00  0.00     0.061 C 
BRANCH  18  19
ATOM     19  N   UNL     1      55.469 153.920  23.991  1.00  0.00    -0.313 NA
ATOM     20  H   UNL     1      56.187 154.293  23.371  1.00  0.00     0.122 HD
BRANCH  19  21
ATOM     21  C   UNL     1      54.347 153.427  23.197  1.00  0.00     0.081 C 
BRANCH  21  22
ATOM     22  C   UNL     1      53.944 151.985  23.542  1.00  0.00     0.019 C 
BRANCH  22  23
ATOM     23  C   UNL     1      54.505 151.475  24.892  1.00  0.00    -0.010 C 
ATOM     24  C   UNL     1      53.620 151.862  26.094  1.00  0.00     0.003 C 
ATOM     25  C   UNL     1      54.704 149.947  24.871  1.00  0.00     0.003 C 
ATOM     26  C   UNL     1      52.312 151.072  26.170  1.00  0.00     0.000 C 
ATOM     27  C   UNL     1      53.389 149.174  24.904  1.00  0.00     0.000 C 
ATOM     28  C   UNL     1      52.548 149.567  26.113  1.00  0.00     0.000 C 
ENDBRANCH  22  23
ENDBRANCH  21  22
ENDBRANCH  19  21
ENDBRANCH  18  19
ENDBRANCH   4  16
TORSDOF 8
ENDMDL
MODEL 3
REMARK VINA RESULT:      -9.4      3.744      9.863
REMARK SMILES Brc1cccc(COc2ccc([C@H]3C[C@@H]3NCCC3CCCCC3)cc2)c1
REMARK SMILES IDX 9 1 10 2 11 3 12 4 25 5 26 6 8 7 7 8 6 9 2 10 3 11 27 12
REMARK SMILES IDX 4 13 5 14 1 15 13 16 14 17 15 18 16 19 17 21 18 22 19 23
REMARK SMILES IDX 20 24 24 25 21 26 23 27 22 28
REMARK H PARENT 16 20
ROOT
ATOM      1  C   UNL     1      52.133 154.797  28.697  1.00  0.00     0.119 A 
ATOM      2  C   UNL     1      52.853 155.701  27.917  1.00  0.00     0.047 A 
ATOM      3  C   UNL     1      52.762 157.077  28.148  1.00  0.00     0.008 A 
ATOM      4  C   UNL     1      51.933 157.593  29.156  1.00  0.00    -0.043 A 
ATOM      5  C   UNL     1      51.217 156.667  29.935  1.00  0.00     0.008 A 
ATOM      6  C   UNL     1      51.312 155.285  29.711  1.00  0.00     0.047 A 
ENDROOT
BRANCH   1   7
ATOM      7  O   UNL     1      52.312 153.486  28.360  1.00  0.00    -0.489 OA
BRANCH   7   8
ATOM      8  C   UNL     1      51.530 152.980  27.280  1.00  0.00     0.265 C 
BRANCH   8   9
ATOM      9  C   UNL     1      52.472 152.609  26.161  1.00  0.00    -0.010 A 
ATOM     10  C   UNL     1      53.698 150.922  24.921  1.00  0.00     0.018 A 
ATOM     11  C   UNL     1      54.201 151.899  24.064  1.00  0.00     0.016 A 
ATOM     12  C   UNL     1      52.836 151.267  25.962  1.00  0.00     0.023 A 
ATOM     13  C   UNL     1      53.837 153.232  24.247  1.00  0.00     0.002 A 
ATOM     14  C   UNL     1      52.974 153.585  25.288  1.00  0.00     0.007 A 
ATOM     15  Br  UNL     1      54.186 149.113  24.669  1.00  0.00    -0.051 Br
ENDBRANCH   8   9
ENDBRANCH   7   8
ENDBRANCH   1   7
BRANCH   4  16
ATOM     16  C   UNL     1      51.829 159.077  29.420  1.00  0.00     0.038 C 
ATOM     17  C   UNL     1      50.481 159.731  29.610  1.00  0.00     0.029 C 
ATOM     18  C   UNL     1      51.393 159.567  30.787  1.00  0.00     0.061 C 
BRANCH  18  19
ATOM     19  N   UNL     1      52.053 160.745  31.366  1.00  0.00    -0.313 NA
ATOM     20  H   UNL     1      52.743 160.447  32.056  1.00  0.00     0.122 HD
BRANCH  19  21
ATOM     21  C   UNL     1      51.101 161.657  31.993  1.00  0.00     0.081 C 
BRANCH  21  22
ATOM     22  C   UNL     1      50.210 160.977  33.045  1.00  0.00     0.019 C 
BRANCH  22  23
ATOM     23  C   UNL     1      48.756 161.510  33.087  1.00  0.00    -0.010 C 
ATOM     24  C   UNL     1      48.402 162.382  31.866  1.00  0.00     0.003 C 
ATOM     25  C   UNL     1      47.743 160.355  33.206  1.00  0.00     0.003 C 
ATOM     26  C   UNL     1      48.228 161.583  30.573  1.00  0.00     0.000 C 
ATOM     27  C   UNL     1      47.614 159.542  31.922  1.00  0.00     0.000 C 
ATOM     28  C   UNL     1      47.245 160.431  30.740  1.00  0.00     0.000 C 
ENDBRANCH  22  23
ENDBRANCH  21  22
ENDBRANCH  19  21
ENDBRANCH  18  19
ENDBRANCH   4  16
TORSDOF 8
ENDMDL
MODEL 4
REMARK VINA RESULT:      -9.2      3.315      9.692
REMARK SMILES Brc1cccc(COc2ccc([C@H]3C[C@@H]3NCCC3CCCCC3)cc2)c1
REMARK SMILES IDX 9 1 10 2 11 3 12 4 25 5 26 6 8 7 7 8 6 9 2 10 3 11 27 12
REMARK SMILES IDX 4 13 5 14 1 15 13 16 14 17 15 18 16 19 17 21 18 22 19 23
REMARK SMILES IDX 20 24 24 25 21 26 23 27 22 28
REMARK H PARENT 16 20
ROOT
ATOM      1  C   UNL     1      52.299 154.393  28.450  1.00  0.00     0.119 A 
ATOM      2  C   UNL     1      51.517 154.860  29.506  1.00  0.00     0.047 A 
ATOM      3  C   UNL     1      51.300 156.230  29.683  1.00  0.00     0.008 A 
ATOM      4  C   UNL     1      51.872 157.177  28.819  1.00  0.00    -0.043 A 
ATOM      5  C   UNL     1      52.653 156.687  27.758  1.00  0.00     0.008 A 
ATOM      6  C   UNL     1      52.868 155.313  27.572  1.00  0.00     0.047 A 
ENDROOT
BRANCH   1   7
ATOM      7  O   UNL     1      52.431 153.034  28.398  1.00  0.00    -0.489 OA
BRANCH   7   8
ATOM      8  C   UNL     1      51.621 152.339  27.453  1.00  0.00     0.265 C 
BRANCH   8   9
ATOM      9  C   UNL     1      52.516 151.879  26.328  1.00  0.00    -0.010 A 
ATOM     10  C   UNL     1      53.995 152.396  24.476  1.00  0.00     0.018 A 
ATOM     11  C   UNL     1      54.209 151.038  24.250  1.00  0.00     0.016 A 
ATOM     12  C   UNL     1      53.159 152.821  25.508  1.00  0.00     0.023 A 
ATOM     13  C   UNL     1      53.583 150.095  25.066  1.00  0.00     0.002 A 
ATOM     14  C   UNL     1      52.744 150.514  26.102  1.00  0.00     0.007 A 
ATOM     15  Br  UNL     1      54.848 153.675  23.374  1.00  0.00    -0.051 Br
ENDBRANCH   8   9
ENDBRANCH   7   8
ENDBRANCH   1   7
BRANCH   4  16
ATOM     16  C   UNL     1      51.641 158.659  28.997  1.00  0.00     0.038 C 
ATOM     17  C   UNL     1      50.541 159.164  29.900  1.00  0.00     0.029 C 
ATOM     18  C   UNL     1      51.971 159.316  30.323  1.00  0.00     0.061 C 
BRANCH  18  19
ATOM     19  N   UNL     1      52.591 160.649  30.324  1.00  0.00    -0.313 NA
ATOM     20  H   UNL     1      53.542 160.583  30.686  1.00  0.00     0.122 HD
BRANCH  19  21
ATOM     21  C   UNL     1      51.832 161.608  31.122  1.00  0.00     0.081 C 
BRANCH  21  22
ATOM     22  C   UNL     1      51.132 160.973  32.334  1.00  0.00     0.019 C 
BRANCH  22  23
ATOM     23  C   UNL     1      49.849 161.712  32.786  1.00  0.00    -0.010 C 
ATOM     24  C   UNL     1      49.007 162.231  31.604  1.00  0.00     0.003 C 
ATOM     25  C   UNL     1      48.976 160.816  33.685  1.00  0.00     0.003 C 
ATOM     26  C   UNL     1      48.277 161.125  30.841  1.00  0.00     0.000 C 
ATOM     27  C   UNL     1      48.289 159.691  32.916  1.00  0.00     0.000 C 
ATOM     28  C   UNL     1      47.451 160.240  31.767  1.00  0.00     0.000 C 
ENDBRANCH  22  23
ENDBRANCH  21  22
ENDBRANCH  19  21
ENDBRANCH  18  19
ENDBRANCH   4  16
TORSDOF 8
ENDMDL
MODEL 5
REMARK VINA RESULT:      -9.1      2.194      3.904
REMARK SMILES Brc1cccc(COc2ccc([C@H]3C[C@@H]3NCCC3CCCCC3)cc2)c1
REMARK SMILES IDX 9 1 10 2 11 3 12 4 25 5 26 6 8 7 7 8 6 9 2 10 3 11 27 12
REMARK SMILES IDX 4 13 5 14 1 15 13 16 14 17 15 18 16 19 17 21 18 22 19 23
REMARK SMILES IDX 20 24 24 25 21 26 23 27 22 28
REMARK H PARENT 16 20
ROOT
ATOM      1  C   UNL     1      51.377 158.147  29.426  1.00  0.00     0.119 A 
ATOM      2  C   UNL     1      52.558 157.850  28.747  1.00  0.00     0.047 A 
ATOM      3  C   UNL     1      52.948 156.523  28.538  1.00  0.00     0.008 A 
ATOM      4  C   UNL     1      52.178 155.453  29.017  1.00  0.00    -0.043 A 
ATOM      5  C   UNL     1      50.989 155.771  29.696  1.00  0.00     0.008 A 
ATOM      6  C   UNL     1      50.589 157.101  29.901  1.00  0.00     0.047 A 
ENDROOT
BRANCH   1   7
ATOM      7  O   UNL     1      51.120 159.482  29.562  1.00  0.00    -0.489 OA
BRANCH   7   8
ATOM      8  C   UNL     1      51.669 160.135  30.704  1.00  0.00     0.265 C 
BRANCH   8   9
ATOM      9  C   UNL     1      50.523 160.565  31.587  1.00  0.00    -0.010 A 
ATOM     10  C   UNL     1      48.170 160.467  32.170  1.00  0.00     0.018 A 
ATOM     11  C   UNL     1      48.386 161.333  33.241  1.00  0.00     0.016 A 
ATOM     12  C   UNL     1      49.228 160.079  31.347  1.00  0.00     0.023 A 
ATOM     13  C   UNL     1      49.671 161.812  33.493  1.00  0.00     0.002 A 
ATOM     14  C   UNL     1      50.735 161.428  32.672  1.00  0.00     0.007 A 
ATOM     15  Br  UNL     1      46.430 159.812  31.830  1.00  0.00    -0.051 Br
ENDBRANCH   8   9
ENDBRANCH   7   8
ENDBRANCH   1   7
BRANCH   4  16
ATOM     16  C   UNL     1      52.586 154.015  28.794  1.00  0.00     0.038 C 
ATOM     17  C   UNL     1      51.693 153.074  28.021  1.00  0.00     0.029 C 
ATOM     18  C   UNL     1      52.971 153.553  27.403  1.00  0.00     0.061 C 
BRANCH  18  19
ATOM     19  N   UNL     1      54.097 152.621  27.247  1.00  0.00    -0.313 NA
ATOM     20  H   UNL     1      54.923 153.003  27.706  1.00  0.00     0.122 HD
BRANCH  19  21
ATOM     21  C   UNL     1      54.401 152.354  25.843  1.00  0.00     0.081 C 
BRANCH  21  22
ATOM     22  C   UNL     1      55.422 153.334  25.244  1.00  0.00     0.019 C 
BRANCH  22  23
ATOM     23  C   UNL     1      54.909 154.108  24.005  1.00  0.00    -0.010 C 
ATOM     24  C   UNL     1      53.386 153.981  23.807  1.00  0.00     0.003 C 
ATOM     25  C   UNL     1      55.297 155.597  24.077  1.00  0.00     0.003 C 
ATOM     26  C   UNL     1      52.568 154.778  24.826  1.00  0.00     0.000 C 
ATOM     27  C   UNL     1      54.503 156.368  25.128  1.00  0.00     0.000 C 
ATOM     28  C   UNL     1      53.002 156.237  24.892  1.00  0.00     0.000 C 
ENDBRANCH  22  23
ENDBRANCH  21  22
ENDBRANCH  19  21
ENDBRANCH  18  19
ENDBRANCH   4  16
TORSDOF 8
ENDMDL
MODEL 6
REMARK VINA RESULT:      -8.8      3.336      9.871
REMARK SMILES Brc1cccc(COc2ccc([C@H]3C[C@@H]3NCCC3CCCCC3)cc2)c1
REMARK SMILES IDX 9 1 10 2 11 3 12 4 25 5 26 6 8 7 7 8 6 9 2 10 3 11 27 12
REMARK SMILES IDX 4 13 5 14 1 15 13 16 14 17 15 18 16 19 17 21 18 22 19 23
REMARK SMILES IDX 20 24 24 25 21 26 23 27 22 28
REMARK H PARENT 16 20
ROOT
ATOM      1  C   UNL     1      52.944 154.907  25.540  1.00  0.00     0.119 A 
ATOM      2  C   UNL     1      52.097 154.282  26.454  1.00  0.00     0.047 A 
ATOM      3  C   UNL     1      51.767 154.903  27.663  1.00  0.00     0.008 A 
ATOM      4  C   UNL     1      52.289 156.161  28.003  1.00  0.00    -0.043 A 
ATOM      5  C   UNL     1      53.138 156.777  27.067  1.00  0.00     0.008 A 
ATOM      6  C   UNL     1      53.465 156.161  25.850  1.00  0.00     0.047 A 
ENDROOT
BRANCH   1   7
ATOM      7  O   UNL     1      53.184 154.188  24.404  1.00  0.00    -0.489 OA
BRANCH   7   8
ATOM      8  C   UNL     1      54.337 153.348  24.399  1.00  0.00     0.265 C 
BRANCH   8   9
ATOM      9  C   UNL     1      53.903 151.964  24.814  1.00  0.00    -0.010 A 
ATOM     10  C   UNL     1      52.621 150.517  26.280  1.00  0.00     0.018 A 
ATOM     11  C   UNL     1      53.062 149.395  25.580  1.00  0.00     0.016 A 
ATOM     12  C   UNL     1      53.032 151.796  25.903  1.00  0.00     0.023 A 
ATOM     13  C   UNL     1      53.918 149.554  24.491  1.00  0.00     0.002 A 
ATOM     14  C   UNL     1      54.334 150.832  24.108  1.00  0.00     0.007 A 
ATOM     15  Br  UNL     1      51.455 150.304  27.753  1.00  0.00    -0.051 Br
ENDBRANCH   8   9
ENDBRANCH   7   8
ENDBRANCH   1   7
BRANCH   4  16
ATOM     16  C   UNL     1      51.937 156.845  29.303  1.00  0.00     0.038 C 
ATOM     17  C   UNL     1      52.047 158.345  29.437  1.00  0.00     0.029 C 
ATOM     18  C   UNL     1      50.692 157.706  29.384  1.00  0.00     0.061 C 
BRANCH  18  19
ATOM     19  N   UNL     1      49.865 157.653  30.598  1.00  0.00    -0.313 NA
ATOM     20  H   UNL     1      49.673 156.681  30.838  1.00  0.00     0.122 HD
BRANCH  19  21
ATOM     21  C   UNL     1      48.604 158.372  30.437  1.00  0.00     0.081 C 
BRANCH  21  22
ATOM     22  C   UNL     1      48.167 159.124  31.704  1.00  0.00     0.019 C 
BRANCH  22  23
ATOM     23  C   UNL     1      48.096 160.662  31.538  1.00  0.00    -0.010 C 
ATOM     24  C   UNL     1      48.121 161.412  32.885  1.00  0.00     0.003 C 
ATOM     25  C   UNL     1      49.236 161.179  30.640  1.00  0.00     0.003 C 
ATOM     26  C   UNL     1      49.491 161.401  33.566  1.00  0.00     0.000 C 
ATOM     27  C   UNL     1      50.601 161.121  31.318  1.00  0.00     0.000 C 
ATOM     28  C   UNL     1      50.596 161.887  32.636  1.00  0.00     0.000 C 
ENDBRANCH  22  23
ENDBRANCH  21  22
ENDBRANCH  19  21
ENDBRANCH  18  19
ENDBRANCH   4  16
TORSDOF 8
ENDMDL
MODEL 7
REMARK VINA RESULT:      -8.7      3.882     10.210
REMARK SMILES Brc1cccc(COc2ccc([C@H]3C[C@@H]3NCCC3CCCCC3)cc2)c1
REMARK SMILES IDX 9 1 10 2 11 3 12 4 25 5 26 6 8 7 7 8 6 9 2 10 3 11 27 12
REMARK SMILES IDX 4 13 5 14 1 15 13 16 14 17 15 18 16 19 17 21 18 22 19 23
REMARK SMILES IDX 20 24 24 25 21 26 23 27 22 28
REMARK H PARENT 16 20
ROOT
ATOM      1  C   UNL     1      52.307 155.393  28.507  1.00  0.00     0.119 A 
ATOM      2  C   UNL     1      51.150 155.105  29.230  1.00  0.00     0.047 A 
ATOM      3  C   UNL     1      50.429 156.124  29.861  1.00  0.00     0.008 A 
ATOM      4  C   UNL     1      50.852 157.461  29.803  1.00  0.00    -0.043 A 
ATOM      5  C   UNL     1      52.018 157.732  29.066  1.00  0.00     0.008 A 
ATOM      6  C   UNL     1      52.740 156.715  28.425  1.00  0.00     0.047 A 
ENDROOT
BRANCH   1   7
ATOM      7  O   UNL     1      52.913 154.305  27.946  1.00  0.00    -0.489 OA
BRANCH   7   8
ATOM      8  C   UNL     1      52.073 153.372  27.269  1.00  0.00     0.265 C 
BRANCH   8   9
ATOM      9  C   UNL     1      52.823 152.868  26.060  1.00  0.00    -0.010 A 
ATOM     10  C   UNL     1      53.785 151.031  24.800  1.00  0.00     0.018 A 
ATOM     11  C   UNL     1      54.191 151.913  23.800  1.00  0.00     0.016 A 
ATOM     12  C   UNL     1      53.102 151.499  25.924  1.00  0.00     0.023 A 
ATOM     13  C   UNL     1      53.909 153.274  23.922  1.00  0.00     0.002 A 
ATOM     14  C   UNL     1      53.226 153.748  25.045  1.00  0.00     0.007 A 
ATOM     15  Br  UNL     1      54.161 149.186  24.633  1.00  0.00    -0.051 Br
ENDBRANCH   8   9
ENDBRANCH   7   8
ENDBRANCH   1   7
BRANCH   4  16
ATOM     16  C   UNL     1      50.080 158.571  30.476  1.00  0.00     0.038 C 
ATOM     17  C   UNL     1      49.495 159.702  29.664  1.00  0.00     0.029 C 
ATOM     18  C   UNL     1      48.582 158.677  30.265  1.00  0.00     0.061 C 
BRANCH  18  19
ATOM     19  N   UNL     1      47.726 159.042  31.402  1.00  0.00    -0.313 NA
ATOM     20  H   UNL     1      47.052 158.297  31.577  1.00  0.00     0.122 HD
BRANCH  19  21
ATOM     21  C   UNL     1      47.015 160.298  31.175  1.00  0.00     0.081 C 
BRANCH  21  22
ATOM     22  C   UNL     1      47.952 161.486  30.901  1.00  0.00     0.019 C 
BRANCH  22  23
ATOM     23  C   UNL     1      48.342 162.292  32.165  1.00  0.00    -0.010 C 
ATOM     24  C   UNL     1      48.161 161.489  33.468  1.00  0.00     0.003 C 
ATOM     25  C   UNL     1      49.792 162.804  32.073  1.00  0.00     0.003 C 
ATOM     26  C   UNL     1      49.211 160.393  33.663  1.00  0.00     0.000 C 
ATOM     27  C   UNL     1      50.827 161.693  32.226  1.00  0.00     0.000 C 
ATOM     28  C   UNL     1      50.630 160.932  33.533  1.00  0.00     0.000 C 
ENDBRANCH  22  23
ENDBRANCH  21  22
ENDBRANCH  19  21
ENDBRANCH  18  19
ENDBRANCH   4  16
TORSDOF 8
ENDMDL
MODEL 8
REMARK VINA RESULT:      -8.2      3.194      9.528
REMARK SMILES Brc1cccc(COc2ccc([C@H]3C[C@@H]3NCCC3CCCCC3)cc2)c1
REMARK SMILES IDX 9 1 10 2 11 3 12 4 25 5 26 6 8 7 7 8 6 9 2 10 3 11 27 12
REMARK SMILES IDX 4 13 5 14 1 15 13 16 14 17 15 18 16 19 17 21 18 22 19 23
REMARK SMILES IDX 20 24 24 25 21 26 23 27 22 28
REMARK H PARENT 16 20
ROOT
ATOM      1  C   UNL     1      53.520 154.492  24.874  1.00  0.00     0.119 A 
ATOM      2  C   UNL     1      52.504 154.070  25.730  1.00  0.00     0.047 A 
ATOM      3  C   UNL     1      52.009 154.919  26.726  1.00  0.00     0.008 A 
ATOM      4  C   UNL     1      52.528 156.210  26.907  1.00  0.00    -0.043 A 
ATOM      5  C   UNL     1      53.550 156.619  26.031  1.00  0.00     0.008 A 
ATOM      6  C   UNL     1      54.043 155.774  25.026  1.00  0.00     0.047 A 
ENDROOT
BRANCH   1   7
ATOM      7  O   UNL     1      53.909 153.562  23.952  1.00  0.00    -0.489 OA
BRANCH   7   8
ATOM      8  C   UNL     1      54.908 152.627  24.356  1.00  0.00     0.265 C 
BRANCH   8   9
ATOM      9  C   UNL     1      54.208 151.376  24.825  1.00  0.00    -0.010 A 
ATOM     10  C   UNL     1      52.615 150.287  26.296  1.00  0.00     0.018 A 
ATOM     11  C   UNL     1      52.874 149.060  25.689  1.00  0.00     0.016 A 
ATOM     12  C   UNL     1      53.271 151.442  25.869  1.00  0.00     0.023 A 
ATOM     13  C   UNL     1      53.795 148.986  24.645  1.00  0.00     0.002 A 
ATOM     14  C   UNL     1      54.456 150.139  24.213  1.00  0.00     0.007 A 
ATOM     15  Br  UNL     1      51.361 150.389  27.708  1.00  0.00    -0.051 Br
ENDBRANCH   8   9
ENDBRANCH   7   8
ENDBRANCH   1   7
BRANCH   4  16
ATOM     16  C   UNL     1      52.000 157.139  27.975  1.00  0.00     0.038 C 
ATOM     17  C   UNL     1      51.735 156.632  29.372  1.00  0.00     0.029 C 
ATOM     18  C   UNL     1      52.898 157.543  29.127  1.00  0.00     0.061 C 
BRANCH  18  19
ATOM     19  N   UNL     1      52.852 158.929  29.615  1.00  0.00    -0.313 NA
ATOM     20  H   UNL     1      53.523 159.048  30.374  1.00  0.00     0.122 HD
BRANCH  19  21
ATOM     21  C   UNL     1      51.519 159.305  30.080  1.00  0.00     0.081 C 
BRANCH  21  22
ATOM     22  C   UNL     1      51.484 160.670  30.786  1.00  0.00     0.019 C 
BRANCH  22  23
ATOM     23  C   UNL     1      50.072 161.298  30.884  1.00  0.00    -0.010 C 
ATOM     24  C   UNL     1      49.047 160.617  29.955  1.00  0.00     0.003 C 
ATOM     25  C   UNL     1      49.550 161.273  32.333  1.00  0.00     0.003 C 
ATOM     26  C   UNL     1      48.622 159.226  30.429  1.00  0.00     0.000 C 
ATOM     27  C   UNL     1      49.171 159.873  32.805  1.00  0.00     0.000 C 
ATOM     28  C   UNL     1      48.143 159.237  31.876  1.00  0.00     0.000 C 
ENDBRANCH  22  23
ENDBRANCH  21  22
ENDBRANCH  19  21
ENDBRANCH  18  19
ENDBRANCH   4  16
TORSDOF 8
ENDMDL
MODEL 9
REMARK VINA RESULT:      -7.6      1.697      3.326
REMARK SMILES Brc1cccc(COc2ccc([C@H]3C[C@@H]3NCCC3CCCCC3)cc2)c1
REMARK SMILES IDX 9 1 10 2 11 3 12 4 25 5 26 6 8 7 7 8 6 9 2 10 3 11 27 12
REMARK SMILES IDX 4 13 5 14 1 15 13 16 14 17 15 18 16 19 17 21 18 22 19 23
REMARK SMILES IDX 20 24 24 25 21 26 23 27 22 28
REMARK H PARENT 16 20
ROOT
ATOM      1  C   UNL     1      50.912 157.211  29.491  1.00  0.00     0.119 A 
ATOM      2  C   UNL     1      52.089 157.160  28.745  1.00  0.00     0.047 A 
ATOM      3  C   UNL     1      52.686 155.934  28.434  1.00  0.00     0.008 A 
ATOM      4  C   UNL     1      52.133 154.721  28.873  1.00  0.00    -0.043 A 
ATOM      5  C   UNL     1      50.944 154.792  29.619  1.00  0.00     0.008 A 
ATOM      6  C   UNL     1      50.338 156.019  29.928  1.00  0.00     0.047 A 
ENDROOT
BRANCH   1   7
ATOM      7  O   UNL     1      50.441 158.471  29.725  1.00  0.00    -0.489 OA
BRANCH   7   8
ATOM      8  C   UNL     1      49.421 158.610  30.712  1.00  0.00     0.265 C 
BRANCH   8   9
ATOM      9  C   UNL     1      49.756 159.815  31.557  1.00  0.00    -0.010 A 
ATOM     10  C   UNL     1      51.205 161.698  32.048  1.00  0.00     0.018 A 
ATOM     11  C   UNL     1      50.376 162.078  33.101  1.00  0.00     0.016 A 
ATOM     12  C   UNL     1      50.901 160.577  31.275  1.00  0.00     0.023 A 
ATOM     13  C   UNL     1      49.230 161.333  33.382  1.00  0.00     0.002 A 
ATOM     14  C   UNL     1      48.920 160.209  32.612  1.00  0.00     0.007 A 
ATOM     15  Br  UNL     1      52.755 162.710  31.662  1.00  0.00    -0.051 Br
ENDBRANCH   8   9
ENDBRANCH   7   8
ENDBRANCH   1   7
BRANCH   4  16
ATOM     16  C   UNL     1      52.765 153.391  28.539  1.00  0.00     0.038 C 
ATOM     17  C   UNL     1      52.067 152.417  27.620  1.00  0.00     0.029 C 
ATOM     18  C   UNL     1      53.288 153.139  27.138  1.00  0.00     0.061 C 
BRANCH  18  19
ATOM     19  N   UNL     1      54.549 152.404  26.969  1.00  0.00    -0.313 NA
ATOM     20  H   UNL     1      55.294 152.881  27.476  1.00  0.00     0.122 HD
BRANCH  19  21
ATOM     21  C   UNL     1      54.924 152.270  25.564  1.00  0.00     0.081 C 
BRANCH  21  22
ATOM     22  C   UNL     1      53.719 152.270  24.610  1.00  0.00     0.019 C 
BRANCH  22  23
ATOM     23  C   UNL     1      53.742 153.405  23.558  1.00  0.00    -0.010 C 
ATOM     24  C   UNL     1      52.726 154.524  23.861  1.00  0.00     0.003 C 
ATOM     25  C   UNL     1      55.152 154.012  23.423  1.00  0.00     0.003 C 
ATOM     26  C   UNL     1      53.127 155.411  25.041  1.00  0.00     0.000 C 
ATOM     27  C   UNL     1      55.553 154.858  24.628  1.00  0.00     0.000 C 
ATOM     28  C   UNL     1      54.538 155.965  24.887  1.00  0.00     0.000 C 
ENDBRANCH  22  23
ENDBRANCH  21  22
ENDBRANCH  19  21
ENDBRANCH  18  19
ENDBRANCH   4  16
TORSDOF 8
ENDMDL
MODEL 10
REMARK VINA RESULT:      -7.5      4.107      9.817
REMARK SMILES Brc1cccc(COc2ccc([C@H]3C[C@@H]3NCCC3CCCCC3)cc2)c1
REMARK SMILES IDX 9 1 10 2 11 3 12 4 25 5 26 6 8 7 7 8 6 9 2 10 3 11 27 12
REMARK SMILES IDX 4 13 5 14 1 15 13 16 14 17 15 18 16 19 17 21 18 22 19 23
REMARK SMILES IDX 20 24 24 25 21 26 23 27 22 28
REMARK H PARENT 16 20
ROOT
ATOM      1  C   UNL     1      52.047 156.054  28.876  1.00  0.00     0.119 A 
ATOM      2  C   UNL     1      50.770 155.660  29.275  1.00  0.00     0.047 A 
ATOM      3  C   UNL     1      49.861 156.593  29.786  1.00  0.00     0.008 A 
ATOM      4  C   UNL     1      50.207 157.945  29.928  1.00  0.00    -0.043 A 
ATOM      5  C   UNL     1      51.497 158.324  29.517  1.00  0.00     0.008 A 
ATOM      6  C   UNL     1      52.410 157.393  28.998  1.00  0.00     0.047 A 
ENDROOT
BRANCH   1   7
ATOM      7  O   UNL     1      52.831 155.041  28.402  1.00  0.00    -0.489 OA
BRANCH   7   8
ATOM      8  C   UNL     1      52.167 153.935  27.796  1.00  0.00     0.265 C 
BRANCH   8   9
ATOM      9  C   UNL     1      52.906 153.591  26.526  1.00  0.00    -0.010 A 
ATOM     10  C   UNL     1      53.883 151.933  25.049  1.00  0.00     0.018 A 
ATOM     11  C   UNL     1      54.254 152.933  24.151  1.00  0.00     0.016 A 
ATOM     12  C   UNL     1      53.210 152.253  26.228  1.00  0.00     0.023 A 
ATOM     13  C   UNL     1      53.947 154.263  24.434  1.00  0.00     0.002 A 
ATOM     14  C   UNL     1      53.273 154.590  25.613  1.00  0.00     0.007 A 
ATOM     15  Br  UNL     1      54.294 150.128  24.664  1.00  0.00    -0.051 Br
ENDBRANCH   8   9
ENDBRANCH   7   8
ENDBRANCH   1   7
BRANCH   4  16
ATOM     16  C   UNL     1      49.234 158.964  30.473  1.00  0.00     0.038 C 
ATOM     17  C   UNL     1      48.466 158.690  31.744  1.00  0.00     0.029 C 
ATOM     18  C   UNL     1      49.565 159.708  31.752  1.00  0.00     0.061 C 
BRANCH  18  19
ATOM     19  N   UNL     1      49.233 161.137  31.852  1.00  0.00    -0.313 NA
ATOM     20  H   UNL     1      48.812 161.452  30.979  1.00  0.00     0.122 HD
BRANCH  19  21
ATOM     21  C   UNL     1      50.405 161.955  32.152  1.00  0.00     0.081 C 
BRANCH  21  22
ATOM     22  C   UNL     1      51.734 161.216  31.932  1.00  0.00     0.019 C 
BRANCH  22  23
ATOM     23  C   UNL     1      52.504 161.656  30.662  1.00  0.00    -0.010 C 
ATOM     24  C   UNL     1      52.819 163.164  30.645  1.00  0.00     0.003 C 
ATOM     25  C   UNL     1      53.809 160.855  30.496  1.00  0.00     0.003 C 
ATOM     26  C   UNL     1      53.917 163.571  31.630  1.00  0.00     0.000 C 
ATOM     27  C   UNL     1      54.878 161.242  31.514  1.00  0.00     0.000 C 
ATOM     28  C   UNL     1      55.179 162.736  31.457  1.00  0.00     0.000 C 
ENDBRANCH  22  23
ENDBRANCH  21  22
ENDBRANCH  19  21
ENDBRANCH  18  19
ENDBRANCH   4  16
TORSDOF 8
ENDMDL
