MODEL 1
REMARK VINA RESULT:      -6.9      0.000      0.000
REMARK SMILES C#CCN(C)Cc1ccc(C(=O)NC2CC(C)(C)N([O])C(C)(C)C2)cc1
REMARK SMILES IDX 7 1 8 2 9 3 10 4 25 5 26 6 6 7 4 8 5 9 3 10 2 11 1 12 11 13
REMARK SMILES IDX 12 14 13 15 14 17 15 18 24 19 16 20 21 21 19 22 17 23 18 24
REMARK SMILES IDX 22 25 23 26 20 27
REMARK H PARENT 13 16
ROOT
ATOM      1  C   UNL     1      53.089 155.391  26.333  1.00  0.00    -0.034 A 
ATOM      2  C   UNL     1      53.268 156.661  26.905  1.00  0.00     0.006 A 
ATOM      3  C   UNL     1      52.537 157.045  28.034  1.00  0.00     0.014 A 
ATOM      4  C   UNL     1      51.617 156.157  28.604  1.00  0.00     0.039 A 
ATOM      5  C   UNL     1      51.453 154.881  28.055  1.00  0.00     0.014 A 
ATOM      6  C   UNL     1      52.178 154.504  26.921  1.00  0.00     0.006 A 
ENDROOT
BRANCH   1   7
ATOM      7  C   UNL     1      53.882 154.985  25.107  1.00  0.00     0.120 C 
BRANCH   7   8
ATOM      8  N   UNL     1      53.615 153.602  24.680  1.00  0.00    -0.291 NA
ATOM      9  C   UNL     1      54.038 153.358  23.300  1.00  0.00     0.106 C 
BRANCH   8  10
ATOM     10  C   UNL     1      54.184 152.621  25.613  1.00  0.00     0.174 C 
ATOM     11  C   UNL     1      54.170 151.230  25.129  1.00  0.00    -0.091 C 
ATOM     12  C   UNL     1      54.169 150.094  24.738  1.00  0.00     0.005 C 
ENDBRANCH   8  10
ENDBRANCH   7   8
ENDBRANCH   1   7
BRANCH   4  13
ATOM     13  C   UNL     1      50.823 156.518  29.809  1.00  0.00     0.251 C 
ATOM     14  O   UNL     1      50.536 155.646  30.623  1.00  0.00    -0.269 OA
ATOM     15  N   UNL     1      50.427 157.834  29.889  1.00  0.00    -0.349 N 
ATOM     16  H   UNL     1      50.701 158.481  29.169  1.00  0.00     0.164 HD
BRANCH  15  17
ATOM     17  C   UNL     1      49.723 158.395  31.045  1.00  0.00     0.086 C 
ATOM     18  C   UNL     1      48.363 158.982  30.665  1.00  0.00     0.049 C 
ATOM     19  C   UNL     1      50.586 159.360  31.862  1.00  0.00     0.049 C 
ATOM     20  C   UNL     1      48.368 160.452  30.172  1.00  0.00     0.046 C 
ATOM     21  C   UNL     1      50.604 160.827  31.358  1.00  0.00     0.046 C 
ATOM     22  N   UNL     1      49.244 161.343  30.995  1.00  0.00    -0.144 NA
ATOM     23  C   UNL     1      46.874 160.937  30.143  1.00  0.00     0.031 C 
ATOM     24  C   UNL     1      48.768 160.548  28.676  1.00  0.00     0.031 C 
ATOM     25  C   UNL     1      51.573 160.975  30.155  1.00  0.00     0.031 C 
ATOM     26  C   UNL     1      51.295 161.701  32.463  1.00  0.00     0.031 C 
ATOM     27  O   UNL     1      48.542 161.596  32.235  1.00  0.00    -0.120 OA
ENDBRANCH  15  17
ENDBRANCH   4  13
TORSDOF 5
ENDMDL
MODEL 2
REMARK VINA RESULT:      -6.8      1.576      3.097
REMARK SMILES C#CCN(C)Cc1ccc(C(=O)NC2CC(C)(C)N([O])C(C)(C)C2)cc1
REMARK SMILES IDX 7 1 8 2 9 3 10 4 25 5 26 6 6 7 4 8 5 9 3 10 2 11 1 12 11 13
REMARK SMILES IDX 12 14 13 15 14 17 15 18 24 19 16 20 21 21 19 22 17 23 18 24
REMARK SMILES IDX 22 25 23 26 20 27
REMARK H PARENT 13 16
ROOT
ATOM      1  C   UNL     1      51.953 154.528  28.139  1.00  0.00    -0.034 A 
ATOM      2  C   UNL     1      51.155 154.886  29.238  1.00  0.00     0.006 A 
ATOM      3  C   UNL     1      51.150 156.201  29.717  1.00  0.00     0.014 A 
ATOM      4  C   UNL     1      51.945 157.171  29.098  1.00  0.00     0.039 A 
ATOM      5  C   UNL     1      52.722 156.827  27.987  1.00  0.00     0.014 A 
ATOM      6  C   UNL     1      52.732 155.511  27.516  1.00  0.00     0.006 A 
ENDROOT
BRANCH   1   7
ATOM      7  C   UNL     1      51.957 153.101  27.629  1.00  0.00     0.120 C 
BRANCH   7   8
ATOM      8  N   UNL     1      52.916 152.882  26.535  1.00  0.00    -0.291 NA
ATOM      9  C   UNL     1      52.982 151.477  26.129  1.00  0.00     0.106 C 
BRANCH   8  10
ATOM     10  C   UNL     1      52.662 153.773  25.396  1.00  0.00     0.174 C 
ATOM     11  C   UNL     1      53.677 153.717  24.331  1.00  0.00    -0.091 C 
ATOM     12  C   UNL     1      54.498 153.670  23.454  1.00  0.00     0.005 C 
ENDBRANCH   8  10
ENDBRANCH   7   8
ENDBRANCH   1   7
BRANCH   4  13
ATOM     13  C   UNL     1      51.966 158.583  29.567  1.00  0.00     0.251 C 
ATOM     14  O   UNL     1      53.041 159.159  29.695  1.00  0.00    -0.269 OA
ATOM     15  N   UNL     1      50.738 159.128  29.870  1.00  0.00    -0.349 N 
ATOM     16  H   UNL     1      49.905 158.578  29.743  1.00  0.00     0.164 HD
BRANCH  15  17
ATOM     17  C   UNL     1      50.550 160.529  30.254  1.00  0.00     0.086 C 
ATOM     18  C   UNL     1      50.773 160.753  31.751  1.00  0.00     0.049 C 
ATOM     19  C   UNL     1      49.230 161.118  29.749  1.00  0.00     0.049 C 
ATOM     20  C   UNL     1      49.544 160.517  32.666  1.00  0.00     0.046 C 
ATOM     21  C   UNL     1      47.998 160.866  30.658  1.00  0.00     0.046 C 
ATOM     22  N   UNL     1      48.281 161.095  32.112  1.00  0.00    -0.144 NA
ATOM     23  C   UNL     1      49.902 161.098  34.082  1.00  0.00     0.031 C 
ATOM     24  C   UNL     1      49.348 159.009  32.976  1.00  0.00     0.031 C 
ATOM     25  C   UNL     1      47.446 159.433  30.438  1.00  0.00     0.031 C 
ATOM     26  C   UNL     1      46.827 161.769  30.131  1.00  0.00     0.031 C 
ATOM     27  O   UNL     1      48.351 162.528  32.309  1.00  0.00    -0.120 OA
ENDBRANCH  15  17
ENDBRANCH   4  13
TORSDOF 5
ENDMDL
MODEL 3
REMARK VINA RESULT:      -6.1      1.226      1.520
REMARK SMILES C#CCN(C)Cc1ccc(C(=O)NC2CC(C)(C)N([O])C(C)(C)C2)cc1
REMARK SMILES IDX 7 1 8 2 9 3 10 4 25 5 26 6 6 7 4 8 5 9 3 10 2 11 1 12 11 13
REMARK SMILES IDX 12 14 13 15 14 17 15 18 24 19 16 20 21 21 19 22 17 23 18 24
REMARK SMILES IDX 22 25 23 26 20 27
REMARK H PARENT 13 16
ROOT
ATOM      1  C   UNL     1      52.418 154.940  28.017  1.00  0.00    -0.034 A 
ATOM      2  C   UNL     1      52.711 156.211  28.538  1.00  0.00     0.006 A 
ATOM      3  C   UNL     1      51.720 156.967  29.174  1.00  0.00     0.014 A 
ATOM      4  C   UNL     1      50.423 156.455  29.295  1.00  0.00     0.039 A 
ATOM      5  C   UNL     1      50.131 155.180  28.802  1.00  0.00     0.014 A 
ATOM      6  C   UNL     1      51.121 154.431  28.158  1.00  0.00     0.006 A 
ENDROOT
BRANCH   1   7
ATOM      7  C   UNL     1      53.495 154.129  27.325  1.00  0.00     0.120 C 
BRANCH   7   8
ATOM      8  N   UNL     1      53.231 153.924  25.891  1.00  0.00    -0.291 NA
ATOM      9  C   UNL     1      52.903 155.175  25.205  1.00  0.00     0.106 C 
BRANCH   8  10
ATOM     10  C   UNL     1      54.325 153.202  25.230  1.00  0.00     0.174 C 
ATOM     11  C   UNL     1      54.093 151.759  25.054  1.00  0.00    -0.091 C 
ATOM     12  C   UNL     1      53.908 150.581  24.900  1.00  0.00     0.005 C 
ENDBRANCH   8  10
ENDBRANCH   7   8
ENDBRANCH   1   7
BRANCH   4  13
ATOM     13  C   UNL     1      49.340 157.219  29.971  1.00  0.00     0.251 C 
ATOM     14  O   UNL     1      48.185 157.105  29.572  1.00  0.00    -0.269 OA
ATOM     15  N   UNL     1      49.744 158.051  30.990  1.00  0.00    -0.349 N 
ATOM     16  H   UNL     1      50.717 158.089  31.245  1.00  0.00     0.164 HD
BRANCH  15  17
ATOM     17  C   UNL     1      48.813 158.807  31.831  1.00  0.00     0.086 C 
ATOM     18  C   UNL     1      47.805 159.606  31.004  1.00  0.00     0.049 C 
ATOM     19  C   UNL     1      49.517 159.651  32.897  1.00  0.00     0.049 C 
ATOM     20  C   UNL     1      48.263 161.014  30.544  1.00  0.00     0.046 C 
ATOM     21  C   UNL     1      49.991 161.053  32.431  1.00  0.00     0.046 C 
ATOM     22  N   UNL     1      48.963 161.783  31.620  1.00  0.00    -0.144 NA
ATOM     23  C   UNL     1      46.992 161.761  30.000  1.00  0.00     0.031 C 
ATOM     24  C   UNL     1      49.158 160.935  29.279  1.00  0.00     0.031 C 
ATOM     25  C   UNL     1      51.320 160.941  31.639  1.00  0.00     0.031 C 
ATOM     26  C   UNL     1      50.421 161.858  33.708  1.00  0.00     0.031 C 
ATOM     27  O   UNL     1      47.944 162.242  32.540  1.00  0.00    -0.120 OA
ENDBRANCH  15  17
ENDBRANCH   4  13
TORSDOF 5
ENDMDL
MODEL 4
REMARK VINA RESULT:      -5.1      2.521      9.119
REMARK SMILES C#CCN(C)Cc1ccc(C(=O)NC2CC(C)(C)N([O])C(C)(C)C2)cc1
REMARK SMILES IDX 7 1 8 2 9 3 10 4 25 5 26 6 6 7 4 8 5 9 3 10 2 11 1 12 11 13
REMARK SMILES IDX 12 14 13 15 14 17 15 18 24 19 16 20 21 21 19 22 17 23 18 24
REMARK SMILES IDX 22 25 23 26 20 27
REMARK H PARENT 13 16
ROOT
ATOM      1  C   UNL     1      50.645 158.201  29.828  1.00  0.00    -0.034 A 
ATOM      2  C   UNL     1      50.012 156.953  29.942  1.00  0.00     0.006 A 
ATOM      3  C   UNL     1      50.674 155.781  29.560  1.00  0.00     0.014 A 
ATOM      4  C   UNL     1      51.979 155.848  29.060  1.00  0.00     0.039 A 
ATOM      5  C   UNL     1      52.625 157.085  28.969  1.00  0.00     0.014 A 
ATOM      6  C   UNL     1      51.958 158.256  29.343  1.00  0.00     0.006 A 
ENDROOT
BRANCH   1   7
ATOM      7  C   UNL     1      49.921 159.467  30.239  1.00  0.00     0.120 C 
BRANCH   7   8
ATOM      8  N   UNL     1      50.377 159.999  31.534  1.00  0.00    -0.291 NA
ATOM      9  C   UNL     1      51.147 161.235  31.383  1.00  0.00     0.106 C 
BRANCH   8  10
ATOM     10  C   UNL     1      49.269 160.152  32.485  1.00  0.00     0.174 C 
ATOM     11  C   UNL     1      47.929 159.968  31.905  1.00  0.00    -0.091 C 
ATOM     12  C   UNL     1      46.831 159.812  31.440  1.00  0.00     0.005 C 
ENDBRANCH   8  10
ENDBRANCH   7   8
ENDBRANCH   1   7
BRANCH   4  13
ATOM     13  C   UNL     1      52.725 154.627  28.650  1.00  0.00     0.251 C 
ATOM     14  O   UNL     1      52.532 153.575  29.249  1.00  0.00    -0.269 OA
ATOM     15  N   UNL     1      53.631 154.799  27.628  1.00  0.00    -0.349 N 
ATOM     16  H   UNL     1      53.730 155.703  27.198  1.00  0.00     0.164 HD
BRANCH  15  17
ATOM     17  C   UNL     1      54.385 153.697  27.026  1.00  0.00     0.086 C 
ATOM     18  C   UNL     1      54.827 154.011  25.596  1.00  0.00     0.049 C 
ATOM     19  C   UNL     1      53.675 152.345  27.151  1.00  0.00     0.049 C 
ATOM     20  C   UNL     1      53.801 153.692  24.479  1.00  0.00     0.046 C 
ATOM     21  C   UNL     1      52.636 152.034  26.042  1.00  0.00     0.046 C 
ATOM     22  N   UNL     1      53.124 152.370  24.665  1.00  0.00    -0.144 NA
ATOM     23  C   UNL     1      54.562 153.790  23.107  1.00  0.00     0.031 C 
ATOM     24  C   UNL     1      52.741 154.817  24.342  1.00  0.00     0.031 C 
ATOM     25  C   UNL     1      51.298 152.766  26.331  1.00  0.00     0.031 C 
ATOM     26  C   UNL     1      52.235 150.523  26.177  1.00  0.00     0.031 C 
ATOM     27  O   UNL     1      54.082 151.350  24.294  1.00  0.00    -0.120 OA
ENDBRANCH  15  17
ENDBRANCH   4  13
TORSDOF 5
ENDMDL
MODEL 5
REMARK VINA RESULT:      -4.5      2.514      9.161
REMARK SMILES C#CCN(C)Cc1ccc(C(=O)NC2CC(C)(C)N([O])C(C)(C)C2)cc1
REMARK SMILES IDX 7 1 8 2 9 3 10 4 25 5 26 6 6 7 4 8 5 9 3 10 2 11 1 12 11 13
REMARK SMILES IDX 12 14 13 15 14 17 15 18 24 19 16 20 21 21 19 22 17 23 18 24
REMARK SMILES IDX 22 25 23 26 20 27
REMARK H PARENT 13 16
ROOT
ATOM      1  C   UNL     1      49.928 157.955  30.350  1.00  0.00    -0.034 A 
ATOM      2  C   UNL     1      51.050 158.689  29.933  1.00  0.00     0.006 A 
ATOM      3  C   UNL     1      52.040 158.092  29.144  1.00  0.00     0.014 A 
ATOM      4  C   UNL     1      51.913 156.751  28.763  1.00  0.00     0.039 A 
ATOM      5  C   UNL     1      50.785 156.023  29.153  1.00  0.00     0.014 A 
ATOM      6  C   UNL     1      49.803 156.618  29.949  1.00  0.00     0.006 A 
ENDROOT
BRANCH   1   7
ATOM      7  C   UNL     1      48.863 158.606  31.209  1.00  0.00     0.120 C 
BRANCH   7   8
ATOM      8  N   UNL     1      48.313 159.835  30.614  1.00  0.00    -0.291 NA
ATOM      9  C   UNL     1      46.879 159.978  30.867  1.00  0.00     0.106 C 
BRANCH   8  10
ATOM     10  C   UNL     1      49.068 161.027  31.022  1.00  0.00     0.174 C 
ATOM     11  C   UNL     1      49.218 161.193  32.477  1.00  0.00    -0.091 C 
ATOM     12  C   UNL     1      49.351 161.332  33.663  1.00  0.00     0.005 C 
ENDBRANCH   8  10
ENDBRANCH   7   8
ENDBRANCH   1   7
BRANCH   4  13
ATOM     13  C   UNL     1      52.936 156.077  27.918  1.00  0.00     0.251 C 
ATOM     14  O   UNL     1      53.588 156.741  27.119  1.00  0.00    -0.269 OA
ATOM     15  N   UNL     1      53.035 154.714  28.077  1.00  0.00    -0.349 N 
ATOM     16  H   UNL     1      52.452 154.248  28.751  1.00  0.00     0.164 HD
BRANCH  15  17
ATOM     17  C   UNL     1      54.046 153.895  27.403  1.00  0.00     0.086 C 
ATOM     18  C   UNL     1      54.447 154.473  26.045  1.00  0.00     0.049 C 
ATOM     19  C   UNL     1      53.670 152.412  27.337  1.00  0.00     0.049 C 
ATOM     20  C   UNL     1      53.561 154.063  24.841  1.00  0.00     0.046 C 
ATOM     21  C   UNL     1      52.769 152.006  26.141  1.00  0.00     0.046 C 
ATOM     22  N   UNL     1      53.209 152.609  24.841  1.00  0.00    -0.144 NA
ATOM     23  C   UNL     1      54.322 154.498  23.536  1.00  0.00     0.031 C 
ATOM     24  C   UNL     1      52.272 154.923  24.766  1.00  0.00     0.031 C 
ATOM     25  C   UNL     1      51.289 152.371  26.428  1.00  0.00     0.031 C 
ATOM     26  C   UNL     1      52.731 150.438  26.085  1.00  0.00     0.031 C 
ATOM     27  O   UNL     1      54.392 151.889  24.418  1.00  0.00    -0.120 OA
ENDBRANCH  15  17
ENDBRANCH   4  13
TORSDOF 5
ENDMDL
MODEL 6
REMARK VINA RESULT:      -4.3      1.567      2.850
REMARK SMILES C#CCN(C)Cc1ccc(C(=O)NC2CC(C)(C)N([O])C(C)(C)C2)cc1
REMARK SMILES IDX 7 1 8 2 9 3 10 4 25 5 26 6 6 7 4 8 5 9 3 10 2 11 1 12 11 13
REMARK SMILES IDX 12 14 13 15 14 17 15 18 24 19 16 20 21 21 19 22 17 23 18 24
REMARK SMILES IDX 22 25 23 26 20 27
REMARK H PARENT 13 16
ROOT
ATOM      1  C   UNL     1      52.586 154.958  28.265  1.00  0.00    -0.034 A 
ATOM      2  C   UNL     1      53.119 156.070  27.593  1.00  0.00     0.006 A 
ATOM      3  C   UNL     1      52.732 157.368  27.945  1.00  0.00     0.014 A 
ATOM      4  C   UNL     1      51.807 157.565  28.976  1.00  0.00     0.039 A 
ATOM      5  C   UNL     1      51.293 156.463  29.667  1.00  0.00     0.014 A 
ATOM      6  C   UNL     1      51.673 155.167  29.307  1.00  0.00     0.006 A 
ENDROOT
BRANCH   1   7
ATOM      7  C   UNL     1      53.006 153.555  27.875  1.00  0.00     0.120 C 
BRANCH   7   8
ATOM      8  N   UNL     1      52.603 153.192  26.507  1.00  0.00    -0.291 NA
ATOM      9  C   UNL     1      53.503 153.753  25.498  1.00  0.00     0.106 C 
BRANCH   8  10
ATOM     10  C   UNL     1      52.435 151.742  26.351  1.00  0.00     0.174 C 
ATOM     11  C   UNL     1      53.416 151.100  25.461  1.00  0.00    -0.091 C 
ATOM     12  C   UNL     1      54.218 150.567  24.742  1.00  0.00     0.005 C 
ENDBRANCH   8  10
ENDBRANCH   7   8
ENDBRANCH   1   7
BRANCH   4  13
ATOM     13  C   UNL     1      51.373 158.927  29.390  1.00  0.00     0.251 C 
ATOM     14  O   UNL     1      52.210 159.730  29.789  1.00  0.00    -0.269 OA
ATOM     15  N   UNL     1      50.018 159.164  29.330  1.00  0.00    -0.349 N 
ATOM     16  H   UNL     1      49.401 158.443  28.997  1.00  0.00     0.164 HD
BRANCH  15  17
ATOM     17  C   UNL     1      49.415 160.470  29.606  1.00  0.00     0.086 C 
ATOM     18  C   UNL     1      50.307 161.344  30.489  1.00  0.00     0.049 C 
ATOM     19  C   UNL     1      47.976 160.371  30.118  1.00  0.00     0.049 C 
ATOM     20  C   UNL     1      50.157 161.144  32.019  1.00  0.00     0.046 C 
ATOM     21  C   UNL     1      47.827 160.154  31.647  1.00  0.00     0.046 C 
ATOM     22  N   UNL     1      48.731 161.033  32.458  1.00  0.00    -0.144 NA
ATOM     23  C   UNL     1      50.911 162.333  32.718  1.00  0.00     0.031 C 
ATOM     24  C   UNL     1      50.963 159.914  32.513  1.00  0.00     0.031 C 
ATOM     25  C   UNL     1      48.061 158.663  32.009  1.00  0.00     0.031 C 
ATOM     26  C   UNL     1      46.315 160.361  32.012  1.00  0.00     0.031 C 
ATOM     27  O   UNL     1      48.172 162.367  32.418  1.00  0.00    -0.120 OA
ENDBRANCH  15  17
ENDBRANCH   4  13
TORSDOF 5
ENDMDL
MODEL 7
REMARK VINA RESULT:      -4.2      2.336      9.139
REMARK SMILES C#CCN(C)Cc1ccc(C(=O)NC2CC(C)(C)N([O])C(C)(C)C2)cc1
REMARK SMILES IDX 7 1 8 2 9 3 10 4 25 5 26 6 6 7 4 8 5 9 3 10 2 11 1 12 11 13
REMARK SMILES IDX 12 14 13 15 14 17 15 18 24 19 16 20 21 21 19 22 17 23 18 24
REMARK SMILES IDX 22 25 23 26 20 27
REMARK H PARENT 13 16
ROOT
ATOM      1  C   UNL     1      51.691 158.520  29.961  1.00  0.00    -0.034 A 
ATOM      2  C   UNL     1      50.657 157.585  30.129  1.00  0.00     0.006 A 
ATOM      3  C   UNL     1      50.593 156.441  29.327  1.00  0.00     0.014 A 
ATOM      4  C   UNL     1      51.568 156.221  28.347  1.00  0.00     0.039 A 
ATOM      5  C   UNL     1      52.615 157.135  28.192  1.00  0.00     0.014 A 
ATOM      6  C   UNL     1      52.671 158.282  28.989  1.00  0.00     0.006 A 
ENDROOT
BRANCH   1   7
ATOM      7  C   UNL     1      51.750 159.761  30.830  1.00  0.00     0.120 C 
BRANCH   7   8
ATOM      8  N   UNL     1      50.473 160.057  31.500  1.00  0.00    -0.291 NA
ATOM      9  C   UNL     1      50.619 161.076  32.541  1.00  0.00     0.106 C 
BRANCH   8  10
ATOM     10  C   UNL     1      49.415 160.395  30.540  1.00  0.00     0.174 C 
ATOM     11  C   UNL     1      48.048 160.104  31.003  1.00  0.00    -0.091 C 
ATOM     12  C   UNL     1      46.928 159.876  31.376  1.00  0.00     0.005 C 
ENDBRANCH   8  10
ENDBRANCH   7   8
ENDBRANCH   1   7
BRANCH   4  13
ATOM     13  C   UNL     1      51.546 155.014  27.477  1.00  0.00     0.251 C 
ATOM     14  O   UNL     1      51.183 153.941  27.946  1.00  0.00    -0.269 OA
ATOM     15  N   UNL     1      51.992 155.201  26.188  1.00  0.00    -0.349 N 
ATOM     16  H   UNL     1      52.280 156.118  25.889  1.00  0.00     0.164 HD
BRANCH  15  17
ATOM     17  C   UNL     1      51.954 154.156  25.162  1.00  0.00     0.086 C 
ATOM     18  C   UNL     1      52.120 152.757  25.755  1.00  0.00     0.049 C 
ATOM     19  C   UNL     1      52.904 154.429  23.992  1.00  0.00     0.049 C 
ATOM     20  C   UNL     1      53.578 152.269  25.954  1.00  0.00     0.046 C 
ATOM     21  C   UNL     1      54.367 153.955  24.199  1.00  0.00     0.046 C 
ATOM     22  N   UNL     1      54.464 152.581  24.789  1.00  0.00    -0.144 NA
ATOM     23  C   UNL     1      53.514 150.729  26.265  1.00  0.00     0.031 C 
ATOM     24  C   UNL     1      54.195 152.837  27.259  1.00  0.00     0.031 C 
ATOM     25  C   UNL     1      55.148 154.972  25.073  1.00  0.00     0.031 C 
ATOM     26  C   UNL     1      55.100 154.059  22.815  1.00  0.00     0.031 C 
ATOM     27  O   UNL     1      54.126 151.643  23.739  1.00  0.00    -0.120 OA
ENDBRANCH  15  17
ENDBRANCH   4  13
TORSDOF 5
ENDMDL
MODEL 8
REMARK VINA RESULT:      -4.1      2.473      9.070
REMARK SMILES C#CCN(C)Cc1ccc(C(=O)NC2CC(C)(C)N([O])C(C)(C)C2)cc1
REMARK SMILES IDX 7 1 8 2 9 3 10 4 25 5 26 6 6 7 4 8 5 9 3 10 2 11 1 12 11 13
REMARK SMILES IDX 12 14 13 15 14 17 15 18 24 19 16 20 21 21 19 22 17 23 18 24
REMARK SMILES IDX 22 25 23 26 20 27
REMARK H PARENT 13 16
ROOT
ATOM      1  C   UNL     1      51.424 158.228  30.089  1.00  0.00    -0.034 A 
ATOM      2  C   UNL     1      52.445 158.128  29.130  1.00  0.00     0.006 A 
ATOM      3  C   UNL     1      52.500 157.035  28.258  1.00  0.00     0.014 A 
ATOM      4  C   UNL     1      51.529 156.030  28.338  1.00  0.00     0.039 A 
ATOM      5  C   UNL     1      50.495 156.137  29.273  1.00  0.00     0.014 A 
ATOM      6  C   UNL     1      50.448 157.225  30.149  1.00  0.00     0.006 A 
ENDROOT
BRANCH   1   7
ATOM      7  C   UNL     1      51.374 159.412  31.034  1.00  0.00     0.120 C 
BRANCH   7   8
ATOM      8  N   UNL     1      51.137 160.691  30.344  1.00  0.00    -0.291 NA
ATOM      9  C   UNL     1      49.725 160.887  30.012  1.00  0.00     0.106 C 
BRANCH   8  10
ATOM     10  C   UNL     1      51.692 161.827  31.090  1.00  0.00     0.174 C 
ATOM     11  C   UNL     1      53.143 162.021  30.928  1.00  0.00    -0.091 C 
ATOM     12  C   UNL     1      54.325 162.190  30.795  1.00  0.00     0.005 C 
ENDBRANCH   8  10
ENDBRANCH   7   8
ENDBRANCH   1   7
BRANCH   4  13
ATOM     13  C   UNL     1      51.543 154.854  27.426  1.00  0.00     0.251 C 
ATOM     14  O   UNL     1      51.197 153.758  27.854  1.00  0.00    -0.269 OA
ATOM     15  N   UNL     1      52.000 155.096  26.150  1.00  0.00    -0.349 N 
ATOM     16  H   UNL     1      52.272 156.027  25.887  1.00  0.00     0.164 HD
BRANCH  15  17
ATOM     17  C   UNL     1      51.995 154.086  25.088  1.00  0.00     0.086 C 
ATOM     18  C   UNL     1      52.193 152.672  25.634  1.00  0.00     0.049 C 
ATOM     19  C   UNL     1      52.946 154.423  23.936  1.00  0.00     0.049 C 
ATOM     20  C   UNL     1      53.661 152.214  25.827  1.00  0.00     0.046 C 
ATOM     21  C   UNL     1      54.419 153.980  24.138  1.00  0.00     0.046 C 
ATOM     22  N   UNL     1      54.547 152.588  24.681  1.00  0.00    -0.144 NA
ATOM     23  C   UNL     1      53.634 150.663  26.084  1.00  0.00     0.031 C 
ATOM     24  C   UNL     1      54.254 152.751  27.156  1.00  0.00     0.031 C 
ATOM     25  C   UNL     1      55.168 154.984  25.053  1.00  0.00     0.031 C 
ATOM     26  C   UNL     1      55.159 154.151  22.765  1.00  0.00     0.031 C 
ATOM     27  O   UNL     1      54.240 151.680  23.597  1.00  0.00    -0.120 OA
ENDBRANCH  15  17
ENDBRANCH   4  13
TORSDOF 5
ENDMDL
MODEL 9
REMARK VINA RESULT:      -0.6      2.594      9.382
REMARK SMILES C#CCN(C)Cc1ccc(C(=O)NC2CC(C)(C)N([O])C(C)(C)C2)cc1
REMARK SMILES IDX 7 1 8 2 9 3 10 4 25 5 26 6 6 7 4 8 5 9 3 10 2 11 1 12 11 13
REMARK SMILES IDX 12 14 13 15 14 17 15 18 24 19 16 20 21 21 19 22 17 23 18 24
REMARK SMILES IDX 22 25 23 26 20 27
REMARK H PARENT 13 16
ROOT
ATOM      1  C   UNL     1      51.363 157.833  29.806  1.00  0.00    -0.034 A 
ATOM      2  C   UNL     1      50.639 156.630  29.791  1.00  0.00     0.006 A 
ATOM      3  C   UNL     1      50.895 155.655  28.819  1.00  0.00     0.014 A 
ATOM      4  C   UNL     1      51.882 155.877  27.853  1.00  0.00     0.039 A 
ATOM      5  C   UNL     1      52.625 157.062  27.878  1.00  0.00     0.014 A 
ATOM      6  C   UNL     1      52.361 158.038  28.844  1.00  0.00     0.006 A 
ENDROOT
BRANCH   1   7
ATOM      7  C   UNL     1      51.077 158.885  30.858  1.00  0.00     0.120 C 
BRANCH   7   8
ATOM      8  N   UNL     1      51.051 160.253  30.314  1.00  0.00    -0.291 NA
ATOM      9  C   UNL     1      49.782 160.560  29.652  1.00  0.00     0.106 C 
BRANCH   8  10
ATOM     10  C   UNL     1      51.401 161.254  31.329  1.00  0.00     0.174 C 
ATOM     11  C   UNL     1      50.499 161.293  32.492  1.00  0.00    -0.091 C 
ATOM     12  C   UNL     1      49.772 161.326  33.449  1.00  0.00     0.005 C 
ENDBRANCH   8  10
ENDBRANCH   7   8
ENDBRANCH   1   7
BRANCH   4  13
ATOM     13  C   UNL     1      52.195 154.867  26.806  1.00  0.00     0.251 C 
ATOM     14  O   UNL     1      51.350 154.030  26.507  1.00  0.00    -0.269 OA
ATOM     15  N   UNL     1      53.464 154.932  26.276  1.00  0.00    -0.349 N 
ATOM     16  H   UNL     1      54.097 155.649  26.587  1.00  0.00     0.164 HD
BRANCH  15  17
ATOM     17  C   UNL     1      53.921 154.085  25.172  1.00  0.00     0.086 C 
ATOM     18  C   UNL     1      53.035 152.852  24.984  1.00  0.00     0.049 C 
ATOM     19  C   UNL     1      55.411 153.745  25.252  1.00  0.00     0.049 C 
ATOM     20  C   UNL     1      53.391 151.618  25.851  1.00  0.00     0.046 C 
ATOM     21  C   UNL     1      55.768 152.520  26.135  1.00  0.00     0.046 C 
ATOM     22  N   UNL     1      54.861 151.348  25.910  1.00  0.00    -0.144 NA
ATOM     23  C   UNL     1      52.578 150.400  25.280  1.00  0.00     0.031 C 
ATOM     24  C   UNL     1      52.815 151.746  27.286  1.00  0.00     0.031 C 
ATOM     25  C   UNL     1      55.775 152.914  27.635  1.00  0.00     0.031 C 
ATOM     26  C   UNL     1      57.274 152.164  25.868  1.00  0.00     0.031 C 
ATOM     27  O   UNL     1      55.233 150.760  24.640  1.00  0.00    -0.120 OA
ENDBRANCH  15  17
ENDBRANCH   4  13
TORSDOF 5
ENDMDL
