MODEL 1
REMARK VINA RESULT:      -9.4      0.000      0.000
REMARK SMILES Brc1cccc(COc2ccc3c(c2)OCCO3)c1
REMARK SMILES IDX 7 1 6 2 2 3 3 4 19 5 4 6 5 7 1 8 8 9 9 10 10 11 14 12 11 13
REMARK SMILES IDX 13 14 12 15 15 16 18 17 16 18 17 19
REMARK H PARENT
ROOT
ATOM      1  C   UNL     1      50.777 156.215  29.484  1.00  0.00     0.265 C 
ENDROOT
BRANCH   1   2
ATOM      2  C   UNL     1      50.533 157.650  29.893  1.00  0.00    -0.010 A 
ATOM      3  C   UNL     1      49.047 159.348  30.787  1.00  0.00     0.018 A 
ATOM      4  C   UNL     1      50.066 160.296  30.724  1.00  0.00     0.016 A 
ATOM      5  C   UNL     1      49.274 158.032  30.382  1.00  0.00     0.023 A 
ATOM      6  C   UNL     1      51.325 159.922  30.255  1.00  0.00     0.002 A 
ATOM      7  C   UNL     1      51.558 158.606  29.847  1.00  0.00     0.007 A 
ATOM      8  Br  UNL     1      47.341 159.848  31.432  1.00  0.00    -0.051 Br
ENDBRANCH   1   2
BRANCH   1   9
ATOM      9  O   UNL     1      52.161 155.905  29.298  1.00  0.00    -0.489 OA
BRANCH   9  10
ATOM     10  C   UNL     1      52.601 155.618  28.035  1.00  0.00     0.123 A 
ATOM     11  C   UNL     1      52.840 156.542  27.016  1.00  0.00     0.050 A 
ATOM     12  C   UNL     1      52.839 154.260  27.799  1.00  0.00     0.096 A 
ATOM     13  C   UNL     1      53.307 156.111  25.769  1.00  0.00     0.054 A 
ATOM     14  C   UNL     1      53.291 153.828  26.554  1.00  0.00     0.165 A 
ATOM     15  C   UNL     1      53.545 154.758  25.543  1.00  0.00     0.161 A 
ATOM     16  O   UNL     1      53.473 152.478  26.395  1.00  0.00    -0.486 OA
ATOM     17  O   UNL     1      54.024 154.414  24.305  1.00  0.00    -0.486 OA
ATOM     18  C   UNL     1      53.603 152.129  25.013  1.00  0.00     0.271 C 
ATOM     19  C   UNL     1      54.551 153.082  24.304  1.00  0.00     0.271 C 
ENDBRANCH   9  10
ENDBRANCH   1   9
TORSDOF 3
ENDMDL
MODEL 2
REMARK VINA RESULT:      -9.4      1.217      2.053
REMARK SMILES Brc1cccc(COc2ccc3c(c2)OCCO3)c1
REMARK SMILES IDX 7 1 6 2 2 3 3 4 19 5 4 6 5 7 1 8 8 9 9 10 10 11 14 12 11 13
REMARK SMILES IDX 13 14 12 15 15 16 18 17 16 18 17 19
REMARK H PARENT
ROOT
ATOM      1  C   UNL     1      52.028 158.282  29.263  1.00  0.00     0.265 C 
ENDROOT
BRANCH   1   2
ATOM      2  C   UNL     1      51.288 159.287  30.117  1.00  0.00    -0.010 A 
ATOM      3  C   UNL     1      49.240 160.010  31.198  1.00  0.00     0.018 A 
ATOM      4  C   UNL     1      49.899 161.103  31.754  1.00  0.00     0.016 A 
ATOM      5  C   UNL     1      49.924 159.102  30.390  1.00  0.00     0.023 A 
ATOM      6  C   UNL     1      51.258 161.288  31.502  1.00  0.00     0.002 A 
ATOM      7  C   UNL     1      51.950 160.382  30.693  1.00  0.00     0.007 A 
ATOM      8  Br  UNL     1      47.399 159.750  31.546  1.00  0.00    -0.051 Br
ENDBRANCH   1   2
BRANCH   1   9
ATOM      9  O   UNL     1      51.617 156.931  29.492  1.00  0.00    -0.489 OA
BRANCH   9  10
ATOM     10  C   UNL     1      51.910 155.990  28.544  1.00  0.00     0.123 A 
ATOM     11  C   UNL     1      51.440 154.676  28.515  1.00  0.00     0.050 A 
ATOM     12  C   UNL     1      52.747 156.442  27.519  1.00  0.00     0.096 A 
ATOM     13  C   UNL     1      51.807 153.819  27.471  1.00  0.00     0.054 A 
ATOM     14  C   UNL     1      53.124 155.585  26.486  1.00  0.00     0.165 A 
ATOM     15  C   UNL     1      52.637 154.276  26.452  1.00  0.00     0.161 A 
ATOM     16  O   UNL     1      53.968 156.097  25.534  1.00  0.00    -0.486 OA
ATOM     17  O   UNL     1      52.935 153.387  25.452  1.00  0.00    -0.486 OA
ATOM     18  C   UNL     1      54.548 155.058  24.738  1.00  0.00     0.271 C 
ATOM     19  C   UNL     1      53.489 154.054  24.311  1.00  0.00     0.271 C 
ENDBRANCH   9  10
ENDBRANCH   1   9
TORSDOF 3
ENDMDL
MODEL 3
REMARK VINA RESULT:      -9.1      3.443      7.423
REMARK SMILES Brc1cccc(COc2ccc3c(c2)OCCO3)c1
REMARK SMILES IDX 7 1 6 2 2 3 3 4 19 5 4 6 5 7 1 8 8 9 9 10 10 11 14 12 11 13
REMARK SMILES IDX 13 14 12 15 15 16 18 17 16 18 17 19
REMARK H PARENT
ROOT
ATOM      1  C   UNL     1      51.268 154.659  27.808  1.00  0.00     0.265 C 
ENDROOT
BRANCH   1   2
ATOM      2  C   UNL     1      52.318 154.527  26.728  1.00  0.00    -0.010 A 
ATOM      3  C   UNL     1      53.636 153.123  25.251  1.00  0.00     0.018 A 
ATOM      4  C   UNL     1      54.222 154.249  24.677  1.00  0.00     0.016 A 
ATOM      5  C   UNL     1      52.686 153.254  26.265  1.00  0.00     0.023 A 
ATOM      6  C   UNL     1      53.851 155.518  25.120  1.00  0.00     0.002 A 
ATOM      7  C   UNL     1      52.901 155.656  26.135  1.00  0.00     0.007 A 
ATOM      8  Br  UNL     1      54.128 151.400  24.647  1.00  0.00    -0.051 Br
ENDBRANCH   1   2
BRANCH   1   9
ATOM      9  O   UNL     1      51.784 155.168  29.042  1.00  0.00    -0.489 OA
BRANCH   9  10
ATOM     10  C   UNL     1      51.516 156.467  29.375  1.00  0.00     0.123 A 
ATOM     11  C   UNL     1      52.407 157.539  29.288  1.00  0.00     0.050 A 
ATOM     12  C   UNL     1      50.210 156.695  29.818  1.00  0.00     0.096 A 
ATOM     13  C   UNL     1      51.995 158.827  29.648  1.00  0.00     0.054 A 
ATOM     14  C   UNL     1      49.802 157.975  30.189  1.00  0.00     0.165 A 
ATOM     15  C   UNL     1      50.692 159.048  30.084  1.00  0.00     0.161 A 
ATOM     16  O   UNL     1      48.514 158.109  30.638  1.00  0.00    -0.486 OA
ATOM     17  O   UNL     1      50.355 160.339  30.397  1.00  0.00    -0.486 OA
ATOM     18  C   UNL     1      48.320 159.365  31.298  1.00  0.00     0.271 C 
ATOM     19  C   UNL     1      48.934 160.497  30.491  1.00  0.00     0.271 C 
ENDBRANCH   9  10
ENDBRANCH   1   9
TORSDOF 3
ENDMDL
MODEL 4
REMARK VINA RESULT:      -9.0      3.404      7.693
REMARK SMILES Brc1cccc(COc2ccc3c(c2)OCCO3)c1
REMARK SMILES IDX 7 1 6 2 2 3 3 4 19 5 4 6 5 7 1 8 8 9 9 10 10 11 14 12 11 13
REMARK SMILES IDX 13 14 12 15 15 16 18 17 16 18 17 19
REMARK H PARENT
ROOT
ATOM      1  C   UNL     1      52.080 155.511  29.178  1.00  0.00     0.265 C 
ENDROOT
BRANCH   1   2
ATOM      2  C   UNL     1      52.623 155.308  27.782  1.00  0.00    -0.010 A 
ATOM      3  C   UNL     1      53.347 153.810  26.015  1.00  0.00     0.018 A 
ATOM      4  C   UNL     1      53.573 154.892  25.168  1.00  0.00     0.016 A 
ATOM      5  C   UNL     1      52.870 154.009  27.311  1.00  0.00     0.023 A 
ATOM      6  C   UNL     1      53.315 156.185  25.620  1.00  0.00     0.002 A 
ATOM      7  C   UNL     1      52.838 156.392  26.917  1.00  0.00     0.007 A 
ATOM      8  Br  UNL     1      53.685 152.053  25.402  1.00  0.00    -0.051 Br
ENDBRANCH   1   2
BRANCH   1   9
ATOM      9  O   UNL     1      50.787 156.125  29.200  1.00  0.00    -0.489 OA
BRANCH   9  10
ATOM     10  C   UNL     1      50.676 157.393  29.700  1.00  0.00     0.123 A 
ATOM     11  C   UNL     1      51.677 158.367  29.706  1.00  0.00     0.050 A 
ATOM     12  C   UNL     1      49.417 157.700  30.226  1.00  0.00     0.096 A 
ATOM     13  C   UNL     1      51.421 159.636  30.238  1.00  0.00     0.054 A 
ATOM     14  C   UNL     1      49.165 158.959  30.767  1.00  0.00     0.165 A 
ATOM     15  C   UNL     1      50.164 159.936  30.755  1.00  0.00     0.161 A 
ATOM     16  O   UNL     1      47.914 159.172  31.286  1.00  0.00    -0.486 OA
ATOM     17  O   UNL     1      49.982 161.206  31.237  1.00  0.00    -0.486 OA
ATOM     18  C   UNL     1      47.881 160.348  32.103  1.00  0.00     0.271 C 
ATOM     19  C   UNL     1      48.591 161.501  31.413  1.00  0.00     0.271 C 
ENDBRANCH   9  10
ENDBRANCH   1   9
TORSDOF 3
ENDMDL
MODEL 5
REMARK VINA RESULT:      -8.9      1.687      2.881
REMARK SMILES Brc1cccc(COc2ccc3c(c2)OCCO3)c1
REMARK SMILES IDX 7 1 6 2 2 3 3 4 19 5 4 6 5 7 1 8 8 9 9 10 10 11 14 12 11 13
REMARK SMILES IDX 13 14 12 15 15 16 18 17 16 18 17 19
REMARK H PARENT
ROOT
ATOM      1  C   UNL     1      51.225 159.351  29.512  1.00  0.00     0.265 C 
ENDROOT
BRANCH   1   2
ATOM      2  C   UNL     1      50.043 159.569  30.431  1.00  0.00    -0.010 A 
ATOM      3  C   UNL     1      49.110 160.554  32.443  1.00  0.00     0.018 A 
ATOM      4  C   UNL     1      47.852 160.047  32.127  1.00  0.00     0.016 A 
ATOM      5  C   UNL     1      50.201 160.326  31.603  1.00  0.00     0.023 A 
ATOM      6  C   UNL     1      47.682 159.308  30.957  1.00  0.00     0.002 A 
ATOM      7  C   UNL     1      48.770 159.075  30.111  1.00  0.00     0.007 A 
ATOM      8  Br  UNL     1      49.344 161.565  34.024  1.00  0.00    -0.051 Br
ENDBRANCH   1   2
BRANCH   1   9
ATOM      9  O   UNL     1      52.057 158.257  29.908  1.00  0.00    -0.489 OA
BRANCH   9  10
ATOM     10  C   UNL     1      52.034 157.114  29.157  1.00  0.00     0.123 A 
ATOM     11  C   UNL     1      51.332 155.945  29.459  1.00  0.00     0.050 A 
ATOM     12  C   UNL     1      52.782 157.181  27.978  1.00  0.00     0.096 A 
ATOM     13  C   UNL     1      51.383 154.850  28.589  1.00  0.00     0.054 A 
ATOM     14  C   UNL     1      52.844 156.085  27.118  1.00  0.00     0.165 A 
ATOM     15  C   UNL     1      52.127 154.924  27.415  1.00  0.00     0.161 A 
ATOM     16  O   UNL     1      53.621 156.222  25.997  1.00  0.00    -0.486 OA
ATOM     17  O   UNL     1      52.110 153.820  26.602  1.00  0.00    -0.486 OA
ATOM     18  C   UNL     1      53.880 154.953  25.384  1.00  0.00     0.271 C 
ATOM     19  C   UNL     1      52.606 154.130  25.295  1.00  0.00     0.271 C 
ENDBRANCH   9  10
ENDBRANCH   1   9
TORSDOF 3
ENDMDL
MODEL 6
REMARK VINA RESULT:      -8.8      3.431      7.778
REMARK SMILES Brc1cccc(COc2ccc3c(c2)OCCO3)c1
REMARK SMILES IDX 7 1 6 2 2 3 3 4 19 5 4 6 5 7 1 8 8 9 9 10 10 11 14 12 11 13
REMARK SMILES IDX 13 14 12 15 15 16 18 17 16 18 17 19
REMARK H PARENT
ROOT
ATOM      1  C   UNL     1      52.751 156.760  27.620  1.00  0.00     0.265 C 
ENDROOT
BRANCH   1   2
ATOM      2  C   UNL     1      52.718 155.353  27.067  1.00  0.00    -0.010 A 
ATOM      3  C   UNL     1      53.355 153.765  25.345  1.00  0.00     0.018 A 
ATOM      4  C   UNL     1      52.730 152.734  26.042  1.00  0.00     0.016 A 
ATOM      5  C   UNL     1      53.358 155.066  25.851  1.00  0.00     0.023 A 
ATOM      6  C   UNL     1      52.106 153.006  27.259  1.00  0.00     0.002 A 
ATOM      7  C   UNL     1      52.105 154.306  27.771  1.00  0.00     0.007 A 
ATOM      8  Br  UNL     1      54.211 153.400  23.699  1.00  0.00    -0.051 Br
ENDBRANCH   1   2
BRANCH   1   9
ATOM      9  O   UNL     1      52.562 156.816  29.037  1.00  0.00    -0.489 OA
BRANCH   9  10
ATOM     10  C   UNL     1      51.380 157.309  29.518  1.00  0.00     0.123 A 
ATOM     11  C   UNL     1      50.203 156.583  29.711  1.00  0.00     0.050 A 
ATOM     12  C   UNL     1      51.411 158.667  29.851  1.00  0.00     0.096 A 
ATOM     13  C   UNL     1      49.065 157.212  30.229  1.00  0.00     0.054 A 
ATOM     14  C   UNL     1      50.274 159.297  30.354  1.00  0.00     0.165 A 
ATOM     15  C   UNL     1      49.104 158.563  30.562  1.00  0.00     0.161 A 
ATOM     16  O   UNL     1      50.379 160.636  30.629  1.00  0.00    -0.486 OA
ATOM     17  O   UNL     1      47.958 159.104  31.084  1.00  0.00    -0.486 OA
ATOM     18  C   UNL     1      49.090 161.235  30.806  1.00  0.00     0.271 C 
ATOM     19  C   UNL     1      48.215 160.371  31.700  1.00  0.00     0.271 C 
ENDBRANCH   9  10
ENDBRANCH   1   9
TORSDOF 3
ENDMDL
MODEL 7
REMARK VINA RESULT:      -8.8      1.333      2.173
REMARK SMILES Brc1cccc(COc2ccc3c(c2)OCCO3)c1
REMARK SMILES IDX 7 1 6 2 2 3 3 4 19 5 4 6 5 7 1 8 8 9 9 10 10 11 14 12 11 13
REMARK SMILES IDX 13 14 12 15 15 16 18 17 16 18 17 19
REMARK H PARENT
ROOT
ATOM      1  C   UNL     1      51.159 154.983  29.371  1.00  0.00     0.265 C 
ENDROOT
BRANCH   1   2
ATOM      2  C   UNL     1      51.062 156.478  29.575  1.00  0.00    -0.010 A 
ATOM      3  C   UNL     1      49.789 158.414  30.296  1.00  0.00     0.018 A 
ATOM      4  C   UNL     1      50.872 159.247  30.025  1.00  0.00     0.016 A 
ATOM      5  C   UNL     1      49.879 157.039  30.080  1.00  0.00     0.023 A 
ATOM      6  C   UNL     1      52.057 158.698  29.538  1.00  0.00     0.002 A 
ATOM      7  C   UNL     1      52.154 157.321  29.319  1.00  0.00     0.007 A 
ATOM      8  Br  UNL     1      48.183 159.153  30.966  1.00  0.00    -0.051 Br
ENDBRANCH   1   2
BRANCH   1   9
ATOM      9  O   UNL     1      50.779 154.563  28.057  1.00  0.00    -0.489 OA
BRANCH   9  10
ATOM     10  C   UNL     1      51.740 154.037  27.237  1.00  0.00     0.123 A 
ATOM     11  C   UNL     1      52.064 152.685  27.111  1.00  0.00     0.050 A 
ATOM     12  C   UNL     1      52.418 154.982  26.460  1.00  0.00     0.096 A 
ATOM     13  C   UNL     1      53.063 152.281  26.217  1.00  0.00     0.054 A 
ATOM     14  C   UNL     1      53.422 154.581  25.579  1.00  0.00     0.165 A 
ATOM     15  C   UNL     1      53.731 153.226  25.443  1.00  0.00     0.161 A 
ATOM     16  O   UNL     1      54.057 155.571  24.873  1.00  0.00    -0.486 OA
ATOM     17  O   UNL     1      54.680 152.753  24.575  1.00  0.00    -0.486 OA
ATOM     18  C   UNL     1      55.268 155.091  24.278  1.00  0.00     0.271 C 
ATOM     19  C   UNL     1      55.041 153.746  23.607  1.00  0.00     0.271 C 
ENDBRANCH   9  10
ENDBRANCH   1   9
TORSDOF 3
ENDMDL
MODEL 8
REMARK VINA RESULT:      -8.6      3.278      7.849
REMARK SMILES Brc1cccc(COc2ccc3c(c2)OCCO3)c1
REMARK SMILES IDX 7 1 6 2 2 3 3 4 19 5 4 6 5 7 1 8 8 9 9 10 10 11 14 12 11 13
REMARK SMILES IDX 13 14 12 15 15 16 18 17 16 18 17 19
REMARK H PARENT
ROOT
ATOM      1  C   UNL     1      51.396 155.617  29.662  1.00  0.00     0.265 C 
ENDROOT
BRANCH   1   2
ATOM      2  C   UNL     1      51.873 155.017  28.358  1.00  0.00    -0.010 A 
ATOM      3  C   UNL     1      53.037 155.262  26.243  1.00  0.00     0.018 A 
ATOM      4  C   UNL     1      52.828 153.916  25.953  1.00  0.00     0.016 A 
ATOM      5  C   UNL     1      52.571 155.813  27.437  1.00  0.00     0.023 A 
ATOM      6  C   UNL     1      52.149 153.113  26.869  1.00  0.00     0.002 A 
ATOM      7  C   UNL     1      51.679 153.658  28.067  1.00  0.00     0.007 A 
ATOM      8  Br  UNL     1      53.965 156.353  25.009  1.00  0.00    -0.051 Br
ENDBRANCH   1   2
BRANCH   1   9
ATOM      9  O   UNL     1      50.231 156.435  29.518  1.00  0.00    -0.489 OA
BRANCH   9  10
ATOM     10  C   UNL     1      50.265 157.711  30.011  1.00  0.00     0.123 A 
ATOM     11  C   UNL     1      51.327 158.610  29.895  1.00  0.00     0.050 A 
ATOM     12  C   UNL     1      49.096 158.109  30.667  1.00  0.00     0.096 A 
ATOM     13  C   UNL     1      51.221 159.897  30.435  1.00  0.00     0.054 A 
ATOM     14  C   UNL     1      48.995 159.386  31.217  1.00  0.00     0.165 A 
ATOM     15  C   UNL     1      50.053 160.289  31.083  1.00  0.00     0.161 A 
ATOM     16  O   UNL     1      47.826 159.690  31.866  1.00  0.00    -0.486 OA
ATOM     17  O   UNL     1      50.015 161.571  31.566  1.00  0.00    -0.486 OA
ATOM     18  C   UNL     1      47.966 160.869  32.667  1.00  0.00     0.271 C 
ATOM     19  C   UNL     1      48.676 161.965  31.889  1.00  0.00     0.271 C 
ENDBRANCH   9  10
ENDBRANCH   1   9
TORSDOF 3
ENDMDL
MODEL 9
REMARK VINA RESULT:      -7.8      2.985      7.151
REMARK SMILES Brc1cccc(COc2ccc3c(c2)OCCO3)c1
REMARK SMILES IDX 7 1 6 2 2 3 3 4 19 5 4 6 5 7 1 8 8 9 9 10 10 11 14 12 11 13
REMARK SMILES IDX 13 14 12 15 15 16 18 17 16 18 17 19
REMARK H PARENT
ROOT
ATOM      1  C   UNL     1      51.746 154.181  26.998  1.00  0.00     0.265 C 
ENDROOT
BRANCH   1   2
ATOM      2  C   UNL     1      52.943 154.230  26.075  1.00  0.00    -0.010 A 
ATOM      3  C   UNL     1      54.495 155.520  24.727  1.00  0.00     0.018 A 
ATOM      4  C   UNL     1      55.204 154.365  24.407  1.00  0.00     0.016 A 
ATOM      5  C   UNL     1      53.376 155.462  25.558  1.00  0.00     0.023 A 
ATOM      6  C   UNL     1      54.791 153.139  24.928  1.00  0.00     0.002 A 
ATOM      7  C   UNL     1      53.671 153.073  25.761  1.00  0.00     0.007 A 
ATOM      8  Br  UNL     1      55.056 157.187  24.031  1.00  0.00    -0.051 Br
ENDBRANCH   1   2
BRANCH   1   9
ATOM      9  O   UNL     1      52.061 154.511  28.354  1.00  0.00    -0.489 OA
BRANCH   9  10
ATOM     10  C   UNL     1      51.867 155.798  28.773  1.00  0.00     0.123 A 
ATOM     11  C   UNL     1      52.795 156.839  28.693  1.00  0.00     0.050 A 
ATOM     12  C   UNL     1      50.599 156.049  29.306  1.00  0.00     0.096 A 
ATOM     13  C   UNL     1      52.457 158.119  29.147  1.00  0.00     0.054 A 
ATOM     14  C   UNL     1      50.266 157.320  29.771  1.00  0.00     0.165 A 
ATOM     15  C   UNL     1      51.191 158.363  29.673  1.00  0.00     0.161 A 
ATOM     16  O   UNL     1      49.013 157.476  30.304  1.00  0.00    -0.486 OA
ATOM     17  O   UNL     1      50.926 159.646  30.076  1.00  0.00    -0.486 OA
ATOM     18  C   UNL     1      48.909 158.698  31.044  1.00  0.00     0.271 C 
ATOM     19  C   UNL     1      49.521 159.851  30.265  1.00  0.00     0.271 C 
ENDBRANCH   9  10
ENDBRANCH   1   9
TORSDOF 3
ENDMDL
MODEL 10
REMARK VINA RESULT:      -6.4      2.208      3.953
REMARK SMILES Brc1cccc(COc2ccc3c(c2)OCCO3)c1
REMARK SMILES IDX 7 1 6 2 2 3 3 4 19 5 4 6 5 7 1 8 8 9 9 10 10 11 14 12 11 13
REMARK SMILES IDX 13 14 12 15 15 16 18 17 16 18 17 19
REMARK H PARENT
ROOT
ATOM      1  C   UNL     1      51.352 160.963  30.092  1.00  0.00     0.265 C 
ENDROOT
BRANCH   1   2
ATOM      2  C   UNL     1      50.331 161.028  31.207  1.00  0.00    -0.010 A 
ATOM      3  C   UNL     1      48.121 160.492  32.055  1.00  0.00     0.018 A 
ATOM      4  C   UNL     1      48.433 161.074  33.281  1.00  0.00     0.016 A 
ATOM      5  C   UNL     1      49.060 160.460  31.023  1.00  0.00     0.023 A 
ATOM      6  C   UNL     1      49.698 161.626  33.479  1.00  0.00     0.002 A 
ATOM      7  C   UNL     1      50.643 161.598  32.450  1.00  0.00     0.007 A 
ATOM      8  Br  UNL     1      46.410 159.734  31.785  1.00  0.00    -0.051 Br
ENDBRANCH   1   2
BRANCH   1   9
ATOM      9  O   UNL     1      52.238 159.845  30.198  1.00  0.00    -0.489 OA
BRANCH   9  10
ATOM     10  C   UNL     1      51.756 158.600  29.899  1.00  0.00     0.123 A 
ATOM     11  C   UNL     1      50.526 158.075  30.300  1.00  0.00     0.050 A 
ATOM     12  C   UNL     1      52.604 157.829  29.098  1.00  0.00     0.096 A 
ATOM     13  C   UNL     1      50.150 156.786  29.906  1.00  0.00     0.054 A 
ATOM     14  C   UNL     1      52.235 156.540  28.716  1.00  0.00     0.165 A 
ATOM     15  C   UNL     1      50.996 156.025  29.105  1.00  0.00     0.161 A 
ATOM     16  O   UNL     1      53.134 155.839  27.954  1.00  0.00    -0.486 OA
ATOM     17  O   UNL     1      50.550 154.781  28.741  1.00  0.00    -0.486 OA
ATOM     18  C   UNL     1      52.809 154.445  27.915  1.00  0.00     0.271 C 
ATOM     19  C   UNL     1      51.324 154.246  27.661  1.00  0.00     0.271 C 
ENDBRANCH   9  10
ENDBRANCH   1   9
TORSDOF 3
ENDMDL
