MODEL 1
REMARK VINA RESULT:      -9.8      0.000      0.000
REMARK SMILES CC(=O)NCC(=O)N1[C@@H]2CC[C@H]1c1ccc(Nc3ncc(C(F)(F)F)c(NC4CCC4)n3)cc12
REMARK SMILES IDX 8 1 12 2 11 3 10 4 9 5 34 6 33 7 16 8 15 9 14 10 13 11 6 12
REMARK SMILES IDX 7 13 5 14 4 15 2 16 3 17 1 18 17 20 18 22 19 23 32 24 20 25
REMARK SMILES IDX 26 26 21 27 27 28 28 30 29 31 31 32 30 33 22 34 23 35 24 36
REMARK SMILES IDX 25 37
REMARK H PARENT 4 19 17 21 27 29
ROOT
ATOM      1  N   UNL     1      58.677 -26.310  26.025  1.00  0.00    -0.327 N 
ATOM      2  C   UNL     1      59.050 -27.494  26.793  1.00  0.00     0.116 C 
ATOM      3  C   UNL     1      58.132 -27.292  28.017  1.00  0.00     0.032 C 
ATOM      4  C   UNL     1      56.867 -26.610  27.387  1.00  0.00     0.032 C 
ATOM      5  C   UNL     1      57.242 -26.521  25.894  1.00  0.00     0.116 C 
ATOM      6  C   UNL     1      57.255 -27.944  25.368  1.00  0.00    -0.018 A 
ATOM      7  C   UNL     1      56.401 -28.637  24.536  1.00  0.00     0.032 A 
ATOM      8  C   UNL     1      56.689 -29.985  24.247  1.00  0.00     0.041 A 
ATOM      9  C   UNL     1      57.833 -30.577  24.835  1.00  0.00     0.026 A 
ATOM     10  C   UNL     1      58.697 -29.870  25.684  1.00  0.00     0.008 A 
ATOM     11  C   UNL     1      58.395 -28.555  25.935  1.00  0.00    -0.020 A 
ENDROOT
BRANCH   1  12
ATOM     12  C   UNL     1      59.418 -25.664  25.065  1.00  0.00     0.242 C 
ATOM     13  O   UNL     1      58.914 -24.881  24.256  1.00  0.00    -0.273 OA
BRANCH  12  14
ATOM     14  C   UNL     1      60.920 -25.946  25.072  1.00  0.00     0.216 C 
BRANCH  14  15
ATOM     15  N   UNL     1      61.286 -26.719  23.903  1.00  0.00    -0.347 N 
ATOM     16  C   UNL     1      61.724 -28.012  24.010  1.00  0.00     0.217 C 
ATOM     17  O   UNL     1      61.867 -28.584  25.086  1.00  0.00    -0.275 OA
ATOM     18  C   UNL     1      62.030 -28.680  22.697  1.00  0.00     0.114 C 
ATOM     19  H   UNL     1      61.131 -26.283  22.999  1.00  0.00     0.164 HD
ENDBRANCH  14  15
ENDBRANCH  12  14
ENDBRANCH   1  12
BRANCH   8  20
ATOM     20  N   UNL     1      55.803 -30.681  23.412  1.00  0.00    -0.324 N 
ATOM     21  H   UNL     1      54.936 -30.216  23.182  1.00  0.00     0.170 HD
BRANCH  20  22
ATOM     22  C   UNL     1      55.871 -31.879  22.708  1.00  0.00     0.229 A 
ATOM     23  N   UNL     1      55.576 -32.971  23.424  1.00  0.00    -0.221 NA
ATOM     24  N   UNL     1      56.214 -31.933  21.415  1.00  0.00    -0.195 NA
ATOM     25  C   UNL     1      55.629 -34.154  22.786  1.00  0.00     0.132 A 
ATOM     26  C   UNL     1      56.279 -33.128  20.799  1.00  0.00     0.144 A 
ATOM     27  C   UNL     1      55.983 -34.297  21.465  1.00  0.00     0.116 A 
BRANCH  26  28
ATOM     28  N   UNL     1      56.600 -33.149  19.423  1.00  0.00    -0.367 N 
ATOM     29  H   UNL     1      57.594 -32.970  19.286  1.00  0.00     0.162 HD
BRANCH  28  30
ATOM     30  C   UNL     1      55.788 -32.477  18.438  1.00  0.00     0.080 C 
ATOM     31  C   UNL     1      54.314 -32.937  18.485  1.00  0.00     0.025 C 
ATOM     32  C   UNL     1      55.877 -33.108  17.030  1.00  0.00     0.025 C 
ATOM     33  C   UNL     1      54.644 -33.962  17.383  1.00  0.00     0.004 C 
ENDBRANCH  28  30
ENDBRANCH  26  28
BRANCH  27  34
ATOM     34  C   UNL     1      55.991 -35.631  20.819  1.00  0.00     0.421 C 
ATOM     35  F   UNL     1      57.037 -35.810  19.969  1.00  0.00    -0.166 F 
ATOM     36  F   UNL     1      54.871 -35.869  20.077  1.00  0.00    -0.166 F 
ATOM     37  F   UNL     1      56.049 -36.660  21.715  1.00  0.00    -0.166 F 
ENDBRANCH  27  34
ENDBRANCH  20  22
ENDBRANCH   8  20
TORSDOF 8
ENDMDL
MODEL 2
REMARK VINA RESULT:      -9.6      1.639      2.218
REMARK SMILES CC(=O)NCC(=O)N1[C@@H]2CC[C@H]1c1ccc(Nc3ncc(C(F)(F)F)c(NC4CCC4)n3)cc12
REMARK SMILES IDX 8 1 12 2 11 3 10 4 9 5 34 6 33 7 16 8 15 9 14 10 13 11 6 12
REMARK SMILES IDX 7 13 5 14 4 15 2 16 3 17 1 18 17 20 18 22 19 23 32 24 20 25
REMARK SMILES IDX 26 26 21 27 27 28 28 30 29 31 31 32 30 33 22 34 23 35 24 36
REMARK SMILES IDX 25 37
REMARK H PARENT 4 19 17 21 27 29
ROOT
ATOM      1  N   UNL     1      57.691 -27.572  26.988  1.00  0.00    -0.327 N 
ATOM      2  C   UNL     1      56.276 -27.932  26.943  1.00  0.00     0.116 C 
ATOM      3  C   UNL     1      55.722 -26.664  26.259  1.00  0.00     0.032 C 
ATOM      4  C   UNL     1      56.894 -26.252  25.300  1.00  0.00     0.032 C 
ATOM      5  C   UNL     1      57.950 -27.343  25.573  1.00  0.00     0.116 C 
ATOM      6  C   UNL     1      57.387 -28.636  25.013  1.00  0.00    -0.018 A 
ATOM      7  C   UNL     1      57.710 -29.388  23.903  1.00  0.00     0.032 A 
ATOM      8  C   UNL     1      56.968 -30.557  23.643  1.00  0.00     0.041 A 
ATOM      9  C   UNL     1      55.910 -30.901  24.519  1.00  0.00     0.026 A 
ATOM     10  C   UNL     1      55.582 -30.130  25.645  1.00  0.00     0.008 A 
ATOM     11  C   UNL     1      56.333 -29.005  25.877  1.00  0.00    -0.020 A 
ENDROOT
BRANCH   1  12
ATOM     12  C   UNL     1      58.651 -28.049  27.846  1.00  0.00     0.242 C 
ATOM     13  O   UNL     1      58.455 -29.016  28.586  1.00  0.00    -0.273 OA
BRANCH  12  14
ATOM     14  C   UNL     1      60.000 -27.331  27.813  1.00  0.00     0.216 C 
BRANCH  14  15
ATOM     15  N   UNL     1      60.953 -28.098  27.038  1.00  0.00    -0.347 N 
ATOM     16  C   UNL     1      61.630 -27.543  25.986  1.00  0.00     0.217 C 
ATOM     17  O   UNL     1      61.456 -26.387  25.611  1.00  0.00    -0.275 OA
ATOM     18  C   UNL     1      62.605 -28.468  25.310  1.00  0.00     0.114 C 
ATOM     19  H   UNL     1      61.150 -29.042  27.358  1.00  0.00     0.164 HD
ENDBRANCH  14  15
ENDBRANCH  12  14
ENDBRANCH   1  12
BRANCH   8  20
ATOM     20  N   UNL     1      57.298 -31.303  22.503  1.00  0.00    -0.324 N 
ATOM     21  H   UNL     1      57.969 -30.893  21.870  1.00  0.00     0.170 HD
BRANCH  20  22
ATOM     22  C   UNL     1      56.981 -32.581  22.054  1.00  0.00     0.229 A 
ATOM     23  N   UNL     1      57.204 -33.562  22.938  1.00  0.00    -0.221 NA
ATOM     24  N   UNL     1      56.498 -32.811  20.826  1.00  0.00    -0.195 NA
ATOM     25  C   UNL     1      56.913 -34.815  22.547  1.00  0.00     0.132 A 
ATOM     26  C   UNL     1      56.231 -34.075  20.448  1.00  0.00     0.144 A 
ATOM     27  C   UNL     1      56.425 -35.138  21.303  1.00  0.00     0.116 A 
BRANCH  26  28
ATOM     28  N   UNL     1      55.679 -34.281  19.163  1.00  0.00    -0.367 N 
ATOM     29  H   UNL     1      56.405 -34.214  18.449  1.00  0.00     0.162 HD
BRANCH  28  30
ATOM     30  C   UNL     1      54.451 -33.649  18.747  1.00  0.00     0.080 C 
ATOM     31  C   UNL     1      53.583 -34.581  17.873  1.00  0.00     0.025 C 
ATOM     32  C   UNL     1      54.614 -32.739  17.509  1.00  0.00     0.025 C 
ATOM     33  C   UNL     1      54.227 -33.943  16.628  1.00  0.00     0.004 C 
ENDBRANCH  28  30
ENDBRANCH  26  28
BRANCH  27  34
ATOM     34  C   UNL     1      56.099 -36.540  20.953  1.00  0.00     0.421 C 
ATOM     35  F   UNL     1      56.889 -37.045  19.967  1.00  0.00    -0.166 F 
ATOM     36  F   UNL     1      54.818 -36.693  20.509  1.00  0.00    -0.166 F 
ATOM     37  F   UNL     1      56.215 -37.398  22.009  1.00  0.00    -0.166 F 
ENDBRANCH  27  34
ENDBRANCH  20  22
ENDBRANCH   8  20
TORSDOF 8
ENDMDL
MODEL 3
REMARK VINA RESULT:      -9.5      5.002      9.891
REMARK SMILES CC(=O)NCC(=O)N1[C@@H]2CC[C@H]1c1ccc(Nc3ncc(C(F)(F)F)c(NC4CCC4)n3)cc12
REMARK SMILES IDX 8 1 12 2 11 3 10 4 9 5 34 6 33 7 16 8 15 9 14 10 13 11 6 12
REMARK SMILES IDX 7 13 5 14 4 15 2 16 3 17 1 18 17 20 18 22 19 23 32 24 20 25
REMARK SMILES IDX 26 26 21 27 27 28 28 30 29 31 31 32 30 33 22 34 23 35 24 36
REMARK SMILES IDX 25 37
REMARK H PARENT 4 19 17 21 27 29
ROOT
ATOM      1  N   UNL     1      54.042 -34.165  18.915  1.00  0.00    -0.327 N 
ATOM      2  C   UNL     1      55.412 -34.666  18.838  1.00  0.00     0.116 C 
ATOM      3  C   UNL     1      55.983 -33.663  17.814  1.00  0.00     0.032 C 
ATOM      4  C   UNL     1      55.196 -32.347  18.147  1.00  0.00     0.032 C 
ATOM      5  C   UNL     1      54.288 -32.786  19.314  1.00  0.00     0.116 C 
ATOM      6  C   UNL     1      55.201 -33.038  20.499  1.00  0.00    -0.018 A 
ATOM      7  C   UNL     1      55.422 -32.341  21.669  1.00  0.00     0.032 A 
ATOM      8  C   UNL     1      56.372 -32.841  22.581  1.00  0.00     0.041 A 
ATOM      9  C   UNL     1      57.074 -34.026  22.251  1.00  0.00     0.026 A 
ATOM     10  C   UNL     1      56.850 -34.729  21.058  1.00  0.00     0.008 A 
ATOM     11  C   UNL     1      55.908 -34.222  20.198  1.00  0.00    -0.020 A 
ENDROOT
BRANCH   1  12
ATOM     12  C   UNL     1      52.917 -34.854  19.295  1.00  0.00     0.242 C 
ATOM     13  O   UNL     1      52.624 -35.041  20.478  1.00  0.00    -0.273 OA
BRANCH  12  14
ATOM     14  C   UNL     1      52.020 -35.356  18.163  1.00  0.00     0.216 C 
BRANCH  14  15
ATOM     15  N   UNL     1      52.547 -34.925  16.884  1.00  0.00    -0.347 N 
ATOM     16  C   UNL     1      51.726 -34.453  15.895  1.00  0.00     0.217 C 
ATOM     17  O   UNL     1      50.506 -34.394  16.009  1.00  0.00    -0.275 OA
ATOM     18  C   UNL     1      52.439 -34.018  14.644  1.00  0.00     0.114 C 
ATOM     19  H   UNL     1      53.558 -34.920  16.784  1.00  0.00     0.164 HD
ENDBRANCH  14  15
ENDBRANCH  12  14
ENDBRANCH   1  12
BRANCH   8  20
ATOM     20  N   UNL     1      56.596 -32.114  23.759  1.00  0.00    -0.324 N 
ATOM     21  H   UNL     1      57.197 -32.542  24.449  1.00  0.00     0.170 HD
BRANCH  20  22
ATOM     22  C   UNL     1      56.250 -30.839  24.193  1.00  0.00     0.229 A 
ATOM     23  N   UNL     1      55.086 -30.762  24.850  1.00  0.00    -0.221 NA
ATOM     24  N   UNL     1      57.021 -29.769  23.961  1.00  0.00    -0.195 NA
ATOM     25  C   UNL     1      54.710 -29.548  25.289  1.00  0.00     0.132 A 
ATOM     26  C   UNL     1      56.618 -28.559  24.392  1.00  0.00     0.144 A 
ATOM     27  C   UNL     1      55.437 -28.399  25.083  1.00  0.00     0.116 A 
BRANCH  26  28
ATOM     28  N   UNL     1      57.475 -27.457  24.173  1.00  0.00    -0.367 N 
ATOM     29  H   UNL     1      57.819 -27.459  23.213  1.00  0.00     0.162 HD
BRANCH  28  30
ATOM     30  C   UNL     1      58.501 -27.085  25.116  1.00  0.00     0.080 C 
ATOM     31  C   UNL     1      58.431 -25.589  25.494  1.00  0.00     0.025 C 
ATOM     32  C   UNL     1      59.868 -26.793  24.457  1.00  0.00     0.025 C 
ATOM     33  C   UNL     1      59.469 -25.306  24.390  1.00  0.00     0.004 C 
ENDBRANCH  28  30
ENDBRANCH  26  28
BRANCH  27  34
ATOM     34  C   UNL     1      54.974 -27.099  25.622  1.00  0.00     0.421 C 
ATOM     35  F   UNL     1      55.601 -26.740  26.774  1.00  0.00    -0.166 F 
ATOM     36  F   UNL     1      53.641 -27.088  25.913  1.00  0.00    -0.166 F 
ATOM     37  F   UNL     1      55.156 -26.062  24.752  1.00  0.00    -0.166 F 
ENDBRANCH  27  34
ENDBRANCH  20  22
ENDBRANCH   8  20
TORSDOF 8
ENDMDL
MODEL 4
REMARK VINA RESULT:      -8.4      4.968      9.872
REMARK SMILES CC(=O)NCC(=O)N1[C@@H]2CC[C@H]1c1ccc(Nc3ncc(C(F)(F)F)c(NC4CCC4)n3)cc12
REMARK SMILES IDX 8 1 12 2 11 3 10 4 9 5 34 6 33 7 16 8 15 9 14 10 13 11 6 12
REMARK SMILES IDX 7 13 5 14 4 15 2 16 3 17 1 18 17 20 18 22 19 23 32 24 20 25
REMARK SMILES IDX 26 26 21 27 27 28 28 30 29 31 31 32 30 33 22 34 23 35 24 36
REMARK SMILES IDX 25 37
REMARK H PARENT 4 19 17 21 27 29
ROOT
ATOM      1  N   UNL     1      54.319 -34.196  19.226  1.00  0.00    -0.327 N 
ATOM      2  C   UNL     1      55.692 -34.678  19.348  1.00  0.00     0.116 C 
ATOM      3  C   UNL     1      56.354 -33.815  18.253  1.00  0.00     0.032 C 
ATOM      4  C   UNL     1      55.532 -32.480  18.326  1.00  0.00     0.032 C 
ATOM      5  C   UNL     1      54.519 -32.770  19.451  1.00  0.00     0.116 C 
ATOM      6  C   UNL     1      55.316 -32.841  20.740  1.00  0.00    -0.018 A 
ATOM      7  C   UNL     1      55.420 -31.987  21.819  1.00  0.00     0.032 A 
ATOM      8  C   UNL     1      56.281 -32.340  22.876  1.00  0.00     0.041 A 
ATOM      9  C   UNL     1      57.017 -33.546  22.781  1.00  0.00     0.026 A 
ATOM     10  C   UNL     1      56.912 -34.410  21.681  1.00  0.00     0.008 A 
ATOM     11  C   UNL     1      56.054 -34.043  20.674  1.00  0.00    -0.020 A 
ENDROOT
BRANCH   1  12
ATOM     12  C   UNL     1      53.165 -34.846  19.590  1.00  0.00     0.242 C 
ATOM     13  O   UNL     1      52.820 -34.971  20.767  1.00  0.00    -0.273 OA
BRANCH  12  14
ATOM     14  C   UNL     1      52.307 -35.386  18.446  1.00  0.00     0.216 C 
BRANCH  14  15
ATOM     15  N   UNL     1      52.875 -34.995  17.172  1.00  0.00    -0.347 N 
ATOM     16  C   UNL     1      52.084 -34.584  16.133  1.00  0.00     0.217 C 
ATOM     17  O   UNL     1      50.859 -34.550  16.196  1.00  0.00    -0.275 OA
ATOM     18  C   UNL     1      52.836 -34.182  14.893  1.00  0.00     0.114 C 
ATOM     19  H   UNL     1      53.889 -34.968  17.111  1.00  0.00     0.164 HD
ENDBRANCH  14  15
ENDBRANCH  12  14
ENDBRANCH   1  12
BRANCH   8  20
ATOM     20  N   UNL     1      56.388 -31.454  23.958  1.00  0.00    -0.324 N 
ATOM     21  H   UNL     1      55.935 -31.731  24.817  1.00  0.00     0.170 HD
BRANCH  20  22
ATOM     22  C   UNL     1      57.082 -30.269  24.177  1.00  0.00     0.229 A 
ATOM     23  N   UNL     1      58.395 -30.415  24.394  1.00  0.00    -0.221 NA
ATOM     24  N   UNL     1      56.477 -29.074  24.181  1.00  0.00    -0.195 NA
ATOM     25  C   UNL     1      59.107 -29.296  24.612  1.00  0.00     0.132 A 
ATOM     26  C   UNL     1      57.205 -27.967  24.419  1.00  0.00     0.144 A 
ATOM     27  C   UNL     1      58.563 -28.033  24.643  1.00  0.00     0.116 A 
BRANCH  26  28
ATOM     28  N   UNL     1      56.547 -26.717  24.371  1.00  0.00    -0.367 N 
ATOM     29  H   UNL     1      57.187 -25.989  24.055  1.00  0.00     0.162 HD
BRANCH  28  30
ATOM     30  C   UNL     1      55.692 -26.261  25.439  1.00  0.00     0.080 C 
ATOM     31  C   UNL     1      56.488 -25.560  26.563  1.00  0.00     0.025 C 
ATOM     32  C   UNL     1      55.338 -27.365  26.461  1.00  0.00     0.025 C 
ATOM     33  C   UNL     1      56.544 -26.909  27.306  1.00  0.00     0.004 C 
ENDBRANCH  28  30
ENDBRANCH  26  28
BRANCH  27  34
ATOM     34  C   UNL     1      59.416 -26.841  24.859  1.00  0.00     0.421 C 
ATOM     35  F   UNL     1      58.967 -25.734  24.209  1.00  0.00    -0.166 F 
ATOM     36  F   UNL     1      60.699 -27.021  24.433  1.00  0.00    -0.166 F 
ATOM     37  F   UNL     1      59.524 -26.491  26.175  1.00  0.00    -0.166 F 
ENDBRANCH  27  34
ENDBRANCH  20  22
ENDBRANCH   8  20
TORSDOF 8
ENDMDL
MODEL 5
REMARK VINA RESULT:      -8.4      8.442     14.105
REMARK SMILES CC(=O)NCC(=O)N1[C@@H]2CC[C@H]1c1ccc(Nc3ncc(C(F)(F)F)c(NC4CCC4)n3)cc12
REMARK SMILES IDX 8 1 12 2 11 3 10 4 9 5 34 6 33 7 16 8 15 9 14 10 13 11 6 12
REMARK SMILES IDX 7 13 5 14 4 15 2 16 3 17 1 18 17 20 18 22 19 23 32 24 20 25
REMARK SMILES IDX 26 26 21 27 27 28 28 30 29 31 31 32 30 33 22 34 23 35 24 36
REMARK SMILES IDX 25 37
REMARK H PARENT 4 19 17 21 27 29
ROOT
ATOM      1  N   UNL     1      50.872 -35.468   9.239  1.00  0.00    -0.327 N 
ATOM      2  C   UNL     1      50.944 -34.046   9.564  1.00  0.00     0.116 C 
ATOM      3  C   UNL     1      49.502 -33.637   9.193  1.00  0.00     0.032 C 
ATOM      4  C   UNL     1      48.677 -34.920   9.562  1.00  0.00     0.032 C 
ATOM      5  C   UNL     1      49.764 -35.878  10.090  1.00  0.00     0.116 C 
ATOM      6  C   UNL     1      50.246 -35.298  11.407  1.00  0.00    -0.018 A 
ATOM      7  C   UNL     1      50.059 -35.684  12.718  1.00  0.00     0.032 A 
ATOM      8  C   UNL     1      50.637 -34.904  13.739  1.00  0.00     0.041 A 
ATOM      9  C   UNL     1      51.370 -33.747  13.378  1.00  0.00     0.026 A 
ATOM     10  C   UNL     1      51.554 -33.355  12.044  1.00  0.00     0.008 A 
ATOM     11  C   UNL     1      50.988 -34.145  11.073  1.00  0.00    -0.020 A 
ENDROOT
BRANCH   1  12
ATOM     12  C   UNL     1      51.911 -36.310   8.923  1.00  0.00     0.242 C 
ATOM     13  O   UNL     1      52.106 -37.371   9.519  1.00  0.00    -0.273 OA
BRANCH  12  14
ATOM     14  C   UNL     1      52.802 -35.872   7.761  1.00  0.00     0.216 C 
BRANCH  14  15
ATOM     15  N   UNL     1      54.079 -35.407   8.263  1.00  0.00    -0.347 N 
ATOM     16  C   UNL     1      54.608 -34.207   7.869  1.00  0.00     0.217 C 
ATOM     17  O   UNL     1      54.064 -33.470   7.053  1.00  0.00    -0.275 OA
ATOM     18  C   UNL     1      55.924 -33.862   8.511  1.00  0.00     0.114 C 
ATOM     19  H   UNL     1      54.526 -35.976   8.977  1.00  0.00     0.164 HD
ENDBRANCH  14  15
ENDBRANCH  12  14
ENDBRANCH   1  12
BRANCH   8  20
ATOM     20  N   UNL     1      50.427 -35.301  15.067  1.00  0.00    -0.324 N 
ATOM     21  H   UNL     1      49.594 -35.841  15.253  1.00  0.00     0.170 HD
BRANCH  20  22
ATOM     22  C   UNL     1      51.172 -35.208  16.237  1.00  0.00     0.229 A 
ATOM     23  N   UNL     1      50.479 -35.408  17.366  1.00  0.00    -0.221 NA
ATOM     24  N   UNL     1      52.482 -34.930  16.233  1.00  0.00    -0.195 NA
ATOM     25  C   UNL     1      51.158 -35.327  18.523  1.00  0.00     0.132 A 
ATOM     26  C   UNL     1      53.140 -34.835  17.404  1.00  0.00     0.144 A 
ATOM     27  C   UNL     1      52.499 -35.035  18.607  1.00  0.00     0.116 A 
BRANCH  26  28
ATOM     28  N   UNL     1      54.530 -34.585  17.365  1.00  0.00    -0.367 N 
ATOM     29  H   UNL     1      54.978 -34.926  18.216  1.00  0.00     0.162 HD
BRANCH  28  30
ATOM     30  C   UNL     1      55.068 -33.316  16.942  1.00  0.00     0.080 C 
ATOM     31  C   UNL     1      56.533 -33.123  17.394  1.00  0.00     0.025 C 
ATOM     32  C   UNL     1      54.690 -32.143  17.875  1.00  0.00     0.025 C 
ATOM     33  C   UNL     1      56.006 -32.383  18.639  1.00  0.00     0.004 C 
ENDBRANCH  28  30
ENDBRANCH  26  28
BRANCH  27  34
ATOM     34  C   UNL     1      53.188 -34.992  19.918  1.00  0.00     0.421 C 
ATOM     35  F   UNL     1      54.363 -35.677  19.931  1.00  0.00    -0.166 F 
ATOM     36  F   UNL     1      52.444 -35.525  20.929  1.00  0.00    -0.166 F 
ATOM     37  F   UNL     1      53.485 -33.723  20.327  1.00  0.00    -0.166 F 
ENDBRANCH  27  34
ENDBRANCH  20  22
ENDBRANCH   8  20
TORSDOF 8
ENDMDL
MODEL 6
REMARK VINA RESULT:      -8.4      9.078     15.110
REMARK SMILES CC(=O)NCC(=O)N1[C@@H]2CC[C@H]1c1ccc(Nc3ncc(C(F)(F)F)c(NC4CCC4)n3)cc12
REMARK SMILES IDX 8 1 12 2 11 3 10 4 9 5 34 6 33 7 16 8 15 9 14 10 13 11 6 12
REMARK SMILES IDX 7 13 5 14 4 15 2 16 3 17 1 18 17 20 18 22 19 23 32 24 20 25
REMARK SMILES IDX 26 26 21 27 27 28 28 30 29 31 31 32 30 33 22 34 23 35 24 36
REMARK SMILES IDX 25 37
REMARK H PARENT 4 19 17 21 27 29
ROOT
ATOM      1  N   UNL     1      49.671 -35.387   9.432  1.00  0.00    -0.327 N 
ATOM      2  C   UNL     1      50.157 -34.056   9.788  1.00  0.00     0.116 C 
ATOM      3  C   UNL     1      48.825 -33.281   9.712  1.00  0.00     0.032 C 
ATOM      4  C   UNL     1      47.778 -34.350  10.185  1.00  0.00     0.032 C 
ATOM      5  C   UNL     1      48.661 -35.584  10.463  1.00  0.00     0.116 C 
ATOM      6  C   UNL     1      49.496 -35.249  11.684  1.00  0.00    -0.018 A 
ATOM      7  C   UNL     1      49.449 -35.684  12.993  1.00  0.00     0.032 A 
ATOM      8  C   UNL     1      50.375 -35.154  13.912  1.00  0.00     0.041 A 
ATOM      9  C   UNL     1      51.303 -34.184  13.461  1.00  0.00     0.026 A 
ATOM     10  C   UNL     1      51.345 -33.740  12.131  1.00  0.00     0.008 A 
ATOM     11  C   UNL     1      50.437 -34.287  11.258  1.00  0.00    -0.020 A 
ENDROOT
BRANCH   1  12
ATOM     12  C   UNL     1      50.390 -36.427   8.895  1.00  0.00     0.242 C 
ATOM     13  O   UNL     1      51.189 -37.090   9.560  1.00  0.00    -0.273 OA
BRANCH  12  14
ATOM     14  C   UNL     1      50.122 -36.742   7.424  1.00  0.00     0.216 C 
BRANCH  14  15
ATOM     15  N   UNL     1      48.700 -36.671   7.152  1.00  0.00    -0.347 N 
ATOM     16  C   UNL     1      47.901 -37.779   7.240  1.00  0.00     0.217 C 
ATOM     17  O   UNL     1      48.329 -38.895   7.517  1.00  0.00    -0.275 OA
ATOM     18  C   UNL     1      46.445 -37.524   6.957  1.00  0.00     0.114 C 
ATOM     19  H   UNL     1      48.314 -35.750   6.967  1.00  0.00     0.164 HD
ENDBRANCH  14  15
ENDBRANCH  12  14
ENDBRANCH   1  12
BRANCH   8  20
ATOM     20  N   UNL     1      50.305 -35.595  15.241  1.00  0.00    -0.324 N 
ATOM     21  H   UNL     1      49.567 -36.247  15.465  1.00  0.00     0.170 HD
BRANCH  20  22
ATOM     22  C   UNL     1      51.104 -35.417  16.366  1.00  0.00     0.229 A 
ATOM     23  N   UNL     1      50.466 -35.539  17.537  1.00  0.00    -0.221 NA
ATOM     24  N   UNL     1      52.410 -35.137  16.281  1.00  0.00    -0.195 NA
ATOM     25  C   UNL     1      51.198 -35.374  18.653  1.00  0.00     0.132 A 
ATOM     26  C   UNL     1      53.122 -34.958  17.410  1.00  0.00     0.144 A 
ATOM     27  C   UNL     1      52.540 -35.074  18.653  1.00  0.00     0.116 A 
BRANCH  26  28
ATOM     28  N   UNL     1      54.508 -34.709  17.288  1.00  0.00    -0.367 N 
ATOM     29  H   UNL     1      55.005 -35.049  18.110  1.00  0.00     0.162 HD
BRANCH  28  30
ATOM     30  C   UNL     1      55.020 -33.440  16.831  1.00  0.00     0.080 C 
ATOM     31  C   UNL     1      56.477 -33.202  17.285  1.00  0.00     0.025 C 
ATOM     32  C   UNL     1      54.610 -32.251  17.729  1.00  0.00     0.025 C 
ATOM     33  C   UNL     1      55.927 -32.439  18.506  1.00  0.00     0.004 C 
ENDBRANCH  28  30
ENDBRANCH  26  28
BRANCH  27  34
ATOM     34  C   UNL     1      53.289 -34.936  19.923  1.00  0.00     0.421 C 
ATOM     35  F   UNL     1      54.517 -35.521  19.889  1.00  0.00    -0.166 F 
ATOM     36  F   UNL     1      52.645 -35.501  20.985  1.00  0.00    -0.166 F 
ATOM     37  F   UNL     1      53.498 -33.636  20.285  1.00  0.00    -0.166 F 
ENDBRANCH  27  34
ENDBRANCH  20  22
ENDBRANCH   8  20
TORSDOF 8
ENDMDL
MODEL 7
REMARK VINA RESULT:      -8.2      5.029      8.542
REMARK SMILES CC(=O)NCC(=O)N1[C@@H]2CC[C@H]1c1ccc(Nc3ncc(C(F)(F)F)c(NC4CCC4)n3)cc12
REMARK SMILES IDX 8 1 12 2 11 3 10 4 9 5 34 6 33 7 16 8 15 9 14 10 13 11 6 12
REMARK SMILES IDX 7 13 5 14 4 15 2 16 3 17 1 18 17 20 18 22 19 23 32 24 20 25
REMARK SMILES IDX 26 26 21 27 27 28 28 30 29 31 31 32 30 33 22 34 23 35 24 36
REMARK SMILES IDX 25 37
REMARK H PARENT 4 19 17 21 27 29
ROOT
ATOM      1  N   UNL     1      55.875 -34.161  21.788  1.00  0.00    -0.327 N 
ATOM      2  C   UNL     1      56.920 -34.432  20.804  1.00  0.00     0.116 C 
ATOM      3  C   UNL     1      56.798 -35.968  20.735  1.00  0.00     0.032 C 
ATOM      4  C   UNL     1      55.263 -36.201  20.961  1.00  0.00     0.032 C 
ATOM      5  C   UNL     1      54.726 -34.765  21.127  1.00  0.00     0.116 C 
ATOM      6  C   UNL     1      54.852 -34.099  19.770  1.00  0.00    -0.018 A 
ATOM      7  C   UNL     1      53.919 -33.738  18.820  1.00  0.00     0.032 A 
ATOM      8  C   UNL     1      54.370 -33.139  17.628  1.00  0.00     0.041 A 
ATOM      9  C   UNL     1      55.761 -32.948  17.446  1.00  0.00     0.026 A 
ATOM     10  C   UNL     1      56.707 -33.320  18.413  1.00  0.00     0.008 A 
ATOM     11  C   UNL     1      56.233 -33.889  19.569  1.00  0.00    -0.020 A 
ENDROOT
BRANCH   1  12
ATOM     12  C   UNL     1      55.761 -33.068  22.612  1.00  0.00     0.242 C 
ATOM     13  O   UNL     1      55.077 -33.082  23.638  1.00  0.00    -0.273 OA
BRANCH  12  14
ATOM     14  C   UNL     1      56.560 -31.830  22.203  1.00  0.00     0.216 C 
BRANCH  14  15
ATOM     15  N   UNL     1      57.474 -31.456  23.263  1.00  0.00    -0.347 N 
ATOM     16  C   UNL     1      57.295 -30.309  23.988  1.00  0.00     0.217 C 
ATOM     17  O   UNL     1      56.385 -29.515  23.774  1.00  0.00    -0.275 OA
ATOM     18  C   UNL     1      58.315 -30.088  25.072  1.00  0.00     0.114 C 
ATOM     19  H   UNL     1      58.207 -32.121  23.491  1.00  0.00     0.164 HD
ENDBRANCH  14  15
ENDBRANCH  12  14
ENDBRANCH   1  12
BRANCH   8  20
ATOM     20  N   UNL     1      53.412 -32.792  16.665  1.00  0.00    -0.324 N 
ATOM     21  H   UNL     1      53.279 -31.806  16.491  1.00  0.00     0.170 HD
BRANCH  20  22
ATOM     22  C   UNL     1      52.624 -33.515  15.775  1.00  0.00     0.229 A 
ATOM     23  N   UNL     1      51.721 -34.321  16.346  1.00  0.00    -0.221 NA
ATOM     24  N   UNL     1      52.767 -33.415  14.447  1.00  0.00    -0.195 NA
ATOM     25  C   UNL     1      50.937 -35.041  15.524  1.00  0.00     0.132 A 
ATOM     26  C   UNL     1      51.985 -34.159  13.642  1.00  0.00     0.144 A 
ATOM     27  C   UNL     1      51.027 -35.006  14.153  1.00  0.00     0.116 A 
BRANCH  26  28
ATOM     28  N   UNL     1      52.129 -33.998  12.245  1.00  0.00    -0.367 N 
ATOM     29  H   UNL     1      53.048 -34.319  11.942  1.00  0.00     0.162 HD
BRANCH  28  30
ATOM     30  C   UNL     1      51.727 -32.789  11.568  1.00  0.00     0.080 C 
ATOM     31  C   UNL     1      50.832 -33.078  10.343  1.00  0.00     0.025 C 
ATOM     32  C   UNL     1      52.792 -32.248  10.588  1.00  0.00     0.025 C 
ATOM     33  C   UNL     1      52.097 -33.042   9.464  1.00  0.00     0.004 C 
ENDBRANCH  28  30
ENDBRANCH  26  28
BRANCH  27  34
ATOM     34  C   UNL     1      50.108 -35.806  13.309  1.00  0.00     0.421 C 
ATOM     35  F   UNL     1      49.550 -36.856  13.968  1.00  0.00    -0.166 F 
ATOM     36  F   UNL     1      50.722 -36.345  12.217  1.00  0.00    -0.166 F 
ATOM     37  F   UNL     1      49.068 -35.077  12.808  1.00  0.00    -0.166 F 
ENDBRANCH  27  34
ENDBRANCH  20  22
ENDBRANCH   8  20
TORSDOF 8
ENDMDL
MODEL 8
REMARK VINA RESULT:      -7.4     10.034     16.110
REMARK SMILES CC(=O)NCC(=O)N1[C@@H]2CC[C@H]1c1ccc(Nc3ncc(C(F)(F)F)c(NC4CCC4)n3)cc12
REMARK SMILES IDX 8 1 12 2 11 3 10 4 9 5 34 6 33 7 16 8 15 9 14 10 13 11 6 12
REMARK SMILES IDX 7 13 5 14 4 15 2 16 3 17 1 18 17 20 18 22 19 23 32 24 20 25
REMARK SMILES IDX 26 26 21 27 27 28 28 30 29 31 31 32 30 33 22 34 23 35 24 36
REMARK SMILES IDX 25 37
REMARK H PARENT 4 19 17 21 27 29
ROOT
ATOM      1  N   UNL     1      48.710 -33.891   7.904  1.00  0.00    -0.327 N 
ATOM      2  C   UNL     1      49.458 -35.144   7.942  1.00  0.00     0.116 C 
ATOM      3  C   UNL     1      50.576 -34.794   6.937  1.00  0.00     0.032 C 
ATOM      4  C   UNL     1      50.782 -33.257   7.177  1.00  0.00     0.032 C 
ATOM      5  C   UNL     1      49.753 -32.948   8.284  1.00  0.00     0.116 C 
ATOM      6  C   UNL     1      50.253 -33.637   9.539  1.00  0.00    -0.018 A 
ATOM      7  C   UNL     1      50.815 -33.157  10.704  1.00  0.00     0.032 A 
ATOM      8  C   UNL     1      51.199 -34.079  11.697  1.00  0.00     0.041 A 
ATOM      9  C   UNL     1      51.010 -35.461  11.452  1.00  0.00     0.026 A 
ATOM     10  C   UNL     1      50.442 -35.946  10.264  1.00  0.00     0.008 A 
ATOM     11  C   UNL     1      50.067 -35.020   9.323  1.00  0.00    -0.020 A 
ENDROOT
BRANCH   1  12
ATOM     12  C   UNL     1      47.387 -33.693   8.217  1.00  0.00     0.242 C 
ATOM     13  O   UNL     1      47.017 -33.377   9.350  1.00  0.00    -0.273 OA
BRANCH  12  14
ATOM     14  C   UNL     1      46.392 -33.858   7.069  1.00  0.00     0.216 C 
BRANCH  14  15
ATOM     15  N   UNL     1      46.961 -33.344   5.840  1.00  0.00    -0.347 N 
ATOM     16  C   UNL     1      47.353 -34.180   4.829  1.00  0.00     0.217 C 
ATOM     17  O   UNL     1      47.282 -35.403   4.905  1.00  0.00    -0.275 OA
ATOM     18  C   UNL     1      47.892 -33.480   3.611  1.00  0.00     0.114 C 
ATOM     19  H   UNL     1      46.985 -32.334   5.734  1.00  0.00     0.164 HD
ENDBRANCH  14  15
ENDBRANCH  12  14
ENDBRANCH   1  12
BRANCH   8  20
ATOM     20  N   UNL     1      51.782 -33.577  12.869  1.00  0.00    -0.324 N 
ATOM     21  H   UNL     1      52.154 -32.639  12.825  1.00  0.00     0.170 HD
BRANCH  20  22
ATOM     22  C   UNL     1      51.896 -34.045  14.174  1.00  0.00     0.229 A 
ATOM     23  N   UNL     1      50.807 -34.661  14.650  1.00  0.00    -0.221 NA
ATOM     24  N   UNL     1      53.009 -33.881  14.900  1.00  0.00    -0.195 NA
ATOM     25  C   UNL     1      50.870 -35.129  15.909  1.00  0.00     0.132 A 
ATOM     26  C   UNL     1      53.046 -34.341  16.165  1.00  0.00     0.144 A 
ATOM     27  C   UNL     1      51.969 -34.993  16.724  1.00  0.00     0.116 A 
BRANCH  26  28
ATOM     28  N   UNL     1      54.250 -34.194  16.890  1.00  0.00    -0.367 N 
ATOM     29  H   UNL     1      54.405 -35.002  17.492  1.00  0.00     0.162 HD
BRANCH  28  30
ATOM     30  C   UNL     1      54.605 -32.957  17.542  1.00  0.00     0.080 C 
ATOM     31  C   UNL     1      56.134 -32.746  17.600  1.00  0.00     0.025 C 
ATOM     32  C   UNL     1      54.620 -33.055  19.084  1.00  0.00     0.025 C 
ATOM     33  C   UNL     1      56.125 -33.379  19.004  1.00  0.00     0.004 C 
ENDBRANCH  28  30
ENDBRANCH  26  28
BRANCH  27  34
ATOM     34  C   UNL     1      51.977 -35.561  18.093  1.00  0.00     0.421 C 
ATOM     35  F   UNL     1      53.138 -36.197  18.403  1.00  0.00    -0.166 F 
ATOM     36  F   UNL     1      50.991 -36.482  18.292  1.00  0.00    -0.166 F 
ATOM     37  F   UNL     1      51.788 -34.621  19.065  1.00  0.00    -0.166 F 
ENDBRANCH  27  34
ENDBRANCH  20  22
ENDBRANCH   8  20
TORSDOF 8
ENDMDL
MODEL 9
REMARK VINA RESULT:      -7.4     10.507     13.928
REMARK SMILES CC(=O)NCC(=O)N1[C@@H]2CC[C@H]1c1ccc(Nc3ncc(C(F)(F)F)c(NC4CCC4)n3)cc12
REMARK SMILES IDX 8 1 12 2 11 3 10 4 9 5 34 6 33 7 16 8 15 9 14 10 13 11 6 12
REMARK SMILES IDX 7 13 5 14 4 15 2 16 3 17 1 18 17 20 18 22 19 23 32 24 20 25
REMARK SMILES IDX 26 26 21 27 27 28 28 30 29 31 31 32 30 33 22 34 23 35 24 36
REMARK SMILES IDX 25 37
REMARK H PARENT 4 19 17 21 27 29
ROOT
ATOM      1  N   UNL     1      57.234 -29.413   8.818  1.00  0.00    -0.327 N 
ATOM      2  C   UNL     1      57.408 -30.856   8.674  1.00  0.00     0.116 C 
ATOM      3  C   UNL     1      58.374 -31.105   9.852  1.00  0.00     0.032 C 
ATOM      4  C   UNL     1      57.905 -30.045  10.910  1.00  0.00     0.032 C 
ATOM      5  C   UNL     1      56.739 -29.342  10.186  1.00  0.00     0.116 C 
ATOM      6  C   UNL     1      55.618 -30.359  10.089  1.00  0.00    -0.018 A 
ATOM      7  C   UNL     1      54.407 -30.476  10.740  1.00  0.00     0.032 A 
ATOM      8  C   UNL     1      53.578 -31.572  10.430  1.00  0.00     0.041 A 
ATOM      9  C   UNL     1      54.030 -32.518   9.478  1.00  0.00     0.026 A 
ATOM     10  C   UNL     1      55.264 -32.399   8.821  1.00  0.00     0.008 A 
ATOM     11  C   UNL     1      56.041 -31.312   9.136  1.00  0.00    -0.020 A 
ENDROOT
BRANCH   1  12
ATOM     12  C   UNL     1      56.861 -28.512   7.850  1.00  0.00     0.242 C 
ATOM     13  O   UNL     1      56.921 -28.773   6.646  1.00  0.00    -0.273 OA
BRANCH  12  14
ATOM     14  C   UNL     1      56.335 -27.167   8.350  1.00  0.00     0.216 C 
BRANCH  14  15
ATOM     15  N   UNL     1      55.002 -26.933   7.834  1.00  0.00    -0.347 N 
ATOM     16  C   UNL     1      53.904 -26.963   8.651  1.00  0.00     0.217 C 
ATOM     17  O   UNL     1      53.967 -27.219   9.849  1.00  0.00    -0.275 OA
ATOM     18  C   UNL     1      52.601 -26.666   7.960  1.00  0.00     0.114 C 
ATOM     19  H   UNL     1      54.929 -26.671   6.854  1.00  0.00     0.164 HD
ENDBRANCH  14  15
ENDBRANCH  12  14
ENDBRANCH   1  12
BRANCH   8  20
ATOM     20  N   UNL     1      52.358 -31.685  11.110  1.00  0.00    -0.324 N 
ATOM     21  H   UNL     1      51.776 -30.860  11.138  1.00  0.00     0.170 HD
BRANCH  20  22
ATOM     22  C   UNL     1      51.674 -32.738  11.708  1.00  0.00     0.229 A 
ATOM     23  N   UNL     1      50.916 -33.464  10.876  1.00  0.00    -0.221 NA
ATOM     24  N   UNL     1      51.761 -32.998  13.019  1.00  0.00    -0.195 NA
ATOM     25  C   UNL     1      50.235 -34.493  11.409  1.00  0.00     0.132 A 
ATOM     26  C   UNL     1      51.056 -34.021  13.537  1.00  0.00     0.144 A 
ATOM     27  C   UNL     1      50.260 -34.820  12.745  1.00  0.00     0.116 A 
BRANCH  26  28
ATOM     28  N   UNL     1      51.204 -34.299  14.915  1.00  0.00    -0.367 N 
ATOM     29  H   UNL     1      50.993 -33.469  15.470  1.00  0.00     0.162 HD
BRANCH  28  30
ATOM     30  C   UNL     1      52.339 -35.023  15.432  1.00  0.00     0.080 C 
ATOM     31  C   UNL     1      52.521 -34.813  16.951  1.00  0.00     0.025 C 
ATOM     32  C   UNL     1      53.683 -34.288  15.230  1.00  0.00     0.025 C 
ATOM     33  C   UNL     1      53.508 -33.673  16.632  1.00  0.00     0.004 C 
ENDBRANCH  28  30
ENDBRANCH  26  28
BRANCH  27  34
ATOM     34  C   UNL     1      49.506 -35.988  13.257  1.00  0.00     0.421 C 
ATOM     35  F   UNL     1      49.940 -36.417  14.473  1.00  0.00    -0.166 F 
ATOM     36  F   UNL     1      49.586 -37.075  12.437  1.00  0.00    -0.166 F 
ATOM     37  F   UNL     1      48.169 -35.745  13.396  1.00  0.00    -0.166 F 
ENDBRANCH  27  34
ENDBRANCH  20  22
ENDBRANCH   8  20
TORSDOF 8
ENDMDL
MODEL 10
REMARK VINA RESULT:      -7.3      9.392     15.500
REMARK SMILES CC(=O)NCC(=O)N1[C@@H]2CC[C@H]1c1ccc(Nc3ncc(C(F)(F)F)c(NC4CCC4)n3)cc12
REMARK SMILES IDX 8 1 12 2 11 3 10 4 9 5 34 6 33 7 16 8 15 9 14 10 13 11 6 12
REMARK SMILES IDX 7 13 5 14 4 15 2 16 3 17 1 18 17 20 18 22 19 23 32 24 20 25
REMARK SMILES IDX 26 26 21 27 27 28 28 30 29 31 31 32 30 33 22 34 23 35 24 36
REMARK SMILES IDX 25 37
REMARK H PARENT 4 19 17 21 27 29
ROOT
ATOM      1  N   UNL     1      48.206 -35.291   8.224  1.00  0.00    -0.327 N 
ATOM      2  C   UNL     1      48.051 -33.852   8.417  1.00  0.00     0.116 C 
ATOM      3  C   UNL     1      46.748 -33.855   9.244  1.00  0.00     0.032 C 
ATOM      4  C   UNL     1      46.875 -35.178  10.079  1.00  0.00     0.032 C 
ATOM      5  C   UNL     1      48.232 -35.742   9.609  1.00  0.00     0.116 C 
ATOM      6  C   UNL     1      49.297 -34.806  10.147  1.00  0.00    -0.018 A 
ATOM      7  C   UNL     1      50.226 -34.935  11.158  1.00  0.00     0.032 A 
ATOM      8  C   UNL     1      51.082 -33.850  11.429  1.00  0.00     0.041 A 
ATOM      9  C   UNL     1      50.940 -32.665  10.667  1.00  0.00     0.026 A 
ATOM     10  C   UNL     1      49.990 -32.535   9.643  1.00  0.00     0.008 A 
ATOM     11  C   UNL     1      49.182 -33.616   9.395  1.00  0.00    -0.020 A 
ENDROOT
BRANCH   1  12
ATOM     12  C   UNL     1      48.897 -35.935   7.226  1.00  0.00     0.242 C 
ATOM     13  O   UNL     1      48.566 -35.861   6.040  1.00  0.00    -0.273 OA
BRANCH  12  14
ATOM     14  C   UNL     1      50.126 -36.731   7.663  1.00  0.00     0.216 C 
BRANCH  14  15
ATOM     15  N   UNL     1      51.316 -35.914   7.540  1.00  0.00    -0.347 N 
ATOM     16  C   UNL     1      52.382 -36.072   8.385  1.00  0.00     0.217 C 
ATOM     17  O   UNL     1      52.390 -36.879   9.310  1.00  0.00    -0.275 OA
ATOM     18  C   UNL     1      53.548 -35.167   8.098  1.00  0.00     0.114 C 
ATOM     19  H   UNL     1      51.353 -35.273   6.753  1.00  0.00     0.164 HD
ENDBRANCH  14  15
ENDBRANCH  12  14
ENDBRANCH   1  12
BRANCH   8  20
ATOM     20  N   UNL     1      52.011 -33.991  12.469  1.00  0.00    -0.324 N 
ATOM     21  H   UNL     1      52.963 -33.721  12.268  1.00  0.00     0.170 HD
BRANCH  20  22
ATOM     22  C   UNL     1      51.920 -34.343  13.812  1.00  0.00     0.229 A 
ATOM     23  N   UNL     1      50.737 -34.849  14.184  1.00  0.00    -0.221 NA
ATOM     24  N   UNL     1      52.936 -34.177  14.668  1.00  0.00    -0.195 NA
ATOM     25  C   UNL     1      50.602 -35.203  15.474  1.00  0.00     0.132 A 
ATOM     26  C   UNL     1      52.774 -34.520  15.959  1.00  0.00     0.144 A 
ATOM     27  C   UNL     1      51.590 -35.056  16.418  1.00  0.00     0.116 A 
BRANCH  26  28
ATOM     28  N   UNL     1      53.879 -34.376  16.828  1.00  0.00    -0.367 N 
ATOM     29  H   UNL     1      53.718 -34.883  17.698  1.00  0.00     0.162 HD
BRANCH  28  30
ATOM     30  C   UNL     1      54.513 -33.100  17.055  1.00  0.00     0.080 C 
ATOM     31  C   UNL     1      56.052 -33.218  17.130  1.00  0.00     0.025 C 
ATOM     32  C   UNL     1      54.533 -32.676  18.541  1.00  0.00     0.025 C 
ATOM     33  C   UNL     1      55.925 -33.326  18.662  1.00  0.00     0.004 C 
ENDBRANCH  28  30
ENDBRANCH  26  28
BRANCH  27  34
ATOM     34  C   UNL     1      51.379 -35.495  17.817  1.00  0.00     0.421 C 
ATOM     35  F   UNL     1      51.335 -36.848  17.954  1.00  0.00    -0.166 F 
ATOM     36  F   UNL     1      50.210 -35.036  18.348  1.00  0.00    -0.166 F 
ATOM     37  F   UNL     1      52.353 -35.060  18.669  1.00  0.00    -0.166 F 
ENDBRANCH  27  34
ENDBRANCH  20  22
ENDBRANCH   8  20
TORSDOF 8
ENDMDL
