MODEL 1
REMARK VINA RESULT:      -9.5      0.000      0.000
REMARK SMILES C=Cc1ccc(-c2cccc3nnc(N)n23)cc1
REMARK SMILES IDX 7 1 8 2 9 3 10 4 11 5 12 6 13 7 14 8 16 9 6 10 3 11 4 12
REMARK SMILES IDX 18 13 5 14 17 15 2 16 1 17 15 18
REMARK H PARENT 15 19 15 20
ROOT
ATOM      1  C   UNL     1      53.885 -34.444  18.026  1.00  0.00     0.058 A 
ATOM      2  C   UNL     1      54.449 -34.149  16.833  1.00  0.00     0.027 A 
ATOM      3  C   UNL     1      53.682 -34.311  15.609  1.00  0.00     0.006 A 
ATOM      4  C   UNL     1      52.411 -34.750  15.633  1.00  0.00     0.050 A 
ATOM      5  C   UNL     1      51.800 -35.064  16.876  1.00  0.00     0.162 A 
ATOM      6  N   UNL     1      50.598 -35.503  17.170  1.00  0.00    -0.128 NA
ATOM      7  N   UNL     1      50.526 -35.638  18.535  1.00  0.00    -0.111 NA
ATOM      8  C   UNL     1      51.683 -35.289  19.055  1.00  0.00     0.226 A 
ATOM      9  N   UNL     1      52.551 -34.903  18.039  1.00  0.00    -0.262 N 
ENDROOT
BRANCH   1  10
ATOM     10  C   UNL     1      54.697 -34.260  19.235  1.00  0.00    -0.001 A 
ATOM     11  C   UNL     1      56.237 -33.910  21.570  1.00  0.00    -0.026 A 
ATOM     12  C   UNL     1      55.622 -32.815  20.951  1.00  0.00     0.009 A 
ATOM     13  C   UNL     1      56.095 -35.178  20.992  1.00  0.00     0.009 A 
ATOM     14  C   UNL     1      54.855 -32.988  19.794  1.00  0.00     0.011 A 
ATOM     15  C   UNL     1      55.329 -35.355  19.836  1.00  0.00     0.011 A 
BRANCH  11  16
ATOM     16  C   UNL     1      57.073 -33.768  22.770  1.00  0.00     0.000 C 
ATOM     17  C   UNL     1      57.998 -34.654  23.160  1.00  0.00     0.009 C 
ENDBRANCH  11  16
ENDBRANCH   1  10
BRANCH   8  18
ATOM     18  N   UNL     1      51.991 -35.300  20.369  1.00  0.00    -0.368 N 
ATOM     19  H   UNL     1      52.792 -35.824  20.706  1.00  0.00     0.159 HD
ATOM     20  H   UNL     1      51.196 -35.351  21.000  1.00  0.00     0.159 HD
ENDBRANCH   8  18
TORSDOF 3
ENDMDL
MODEL 2
REMARK VINA RESULT:      -9.0      1.397      2.483
REMARK SMILES C=Cc1ccc(-c2cccc3nnc(N)n23)cc1
REMARK SMILES IDX 7 1 8 2 9 3 10 4 11 5 12 6 13 7 14 8 16 9 6 10 3 11 4 12
REMARK SMILES IDX 18 13 5 14 17 15 2 16 1 17 15 18
REMARK H PARENT 15 19 15 20
ROOT
ATOM      1  C   UNL     1      53.048 -34.872  18.801  1.00  0.00     0.058 A 
ATOM      2  C   UNL     1      51.882 -35.384  19.253  1.00  0.00     0.027 A 
ATOM      3  C   UNL     1      50.813 -35.688  18.316  1.00  0.00     0.006 A 
ATOM      4  C   UNL     1      50.957 -35.473  16.996  1.00  0.00     0.050 A 
ATOM      5  C   UNL     1      52.176 -34.936  16.502  1.00  0.00     0.162 A 
ATOM      6  N   UNL     1      52.565 -34.636  15.284  1.00  0.00    -0.128 NA
ATOM      7  N   UNL     1      53.845 -34.148  15.365  1.00  0.00    -0.111 NA
ATOM      8  C   UNL     1      54.219 -34.149  16.626  1.00  0.00     0.226 A 
ATOM      9  N   UNL     1      53.189 -34.650  17.414  1.00  0.00    -0.262 N 
ENDROOT
BRANCH   1  10
ATOM     10  C   UNL     1      54.101 -34.585  19.784  1.00  0.00    -0.001 A 
ATOM     11  C   UNL     1      56.107 -34.040  21.688  1.00  0.00    -0.026 A 
ATOM     12  C   UNL     1      55.174 -33.059  21.335  1.00  0.00     0.009 A 
ATOM     13  C   UNL     1      56.041 -35.289  21.057  1.00  0.00     0.009 A 
ATOM     14  C   UNL     1      54.176 -33.328  20.392  1.00  0.00     0.011 A 
ATOM     15  C   UNL     1      55.045 -35.563  20.115  1.00  0.00     0.011 A 
BRANCH  11  16
ATOM     16  C   UNL     1      57.187 -33.790  22.652  1.00  0.00     0.000 C 
ATOM     17  C   UNL     1      58.031 -34.724  23.107  1.00  0.00     0.009 C 
ENDBRANCH  11  16
ENDBRANCH   1  10
BRANCH   8  18
ATOM     18  N   UNL     1      55.414 -33.731  17.094  1.00  0.00    -0.368 N 
ATOM     19  H   UNL     1      56.273 -33.997  16.624  1.00  0.00     0.159 HD
ATOM     20  H   UNL     1      55.506 -33.728  18.106  1.00  0.00     0.159 HD
ENDBRANCH   8  18
TORSDOF 3
ENDMDL
MODEL 3
REMARK VINA RESULT:      -8.0      2.947      6.242
REMARK SMILES C=Cc1ccc(-c2cccc3nnc(N)n23)cc1
REMARK SMILES IDX 7 1 8 2 9 3 10 4 11 5 12 6 13 7 14 8 16 9 6 10 3 11 4 12
REMARK SMILES IDX 18 13 5 14 17 15 2 16 1 17 15 18
REMARK H PARENT 15 19 15 20
ROOT
ATOM      1  C   UNL     1      55.746 -34.977  20.244  1.00  0.00     0.058 A 
ATOM      2  C   UNL     1      55.889 -36.282  20.566  1.00  0.00     0.027 A 
ATOM      3  C   UNL     1      56.636 -36.657  21.754  1.00  0.00     0.006 A 
ATOM      4  C   UNL     1      57.194 -35.729  22.552  1.00  0.00     0.050 A 
ATOM      5  C   UNL     1      57.055 -34.353  22.231  1.00  0.00     0.162 A 
ATOM      6  N   UNL     1      57.495 -33.269  22.830  1.00  0.00    -0.128 NA
ATOM      7  N   UNL     1      57.073 -32.188  22.097  1.00  0.00    -0.111 NA
ATOM      8  C   UNL     1      56.389 -32.622  21.060  1.00  0.00     0.226 A 
ATOM      9  N   UNL     1      56.336 -34.012  21.087  1.00  0.00    -0.262 N 
ENDROOT
BRANCH   1  10
ATOM     10  C   UNL     1      54.979 -34.646  19.037  1.00  0.00    -0.001 A 
ATOM     11  C   UNL     1      53.514 -34.029  16.708  1.00  0.00    -0.026 A 
ATOM     12  C   UNL     1      54.833 -33.586  16.859  1.00  0.00     0.009 A 
ATOM     13  C   UNL     1      52.927 -34.761  17.748  1.00  0.00     0.009 A 
ATOM     14  C   UNL     1      55.563 -33.893  18.013  1.00  0.00     0.011 A 
ATOM     15  C   UNL     1      53.653 -35.072  18.902  1.00  0.00     0.011 A 
BRANCH  11  16
ATOM     16  C   UNL     1      52.705 -33.704  15.526  1.00  0.00     0.000 C 
ATOM     17  C   UNL     1      51.681 -34.443  15.080  1.00  0.00     0.009 C 
ENDBRANCH  11  16
ENDBRANCH   1  10
BRANCH   8  18
ATOM     18  N   UNL     1      55.824 -31.848  20.109  1.00  0.00    -0.368 N 
ATOM     19  H   UNL     1      56.344 -31.591  19.277  1.00  0.00     0.159 HD
ATOM     20  H   UNL     1      55.242 -31.091  20.456  1.00  0.00     0.159 HD
ENDBRANCH   8  18
TORSDOF 3
ENDMDL
MODEL 4
REMARK VINA RESULT:      -7.4      1.905      6.128
REMARK SMILES C=Cc1ccc(-c2cccc3nnc(N)n23)cc1
REMARK SMILES IDX 7 1 8 2 9 3 10 4 11 5 12 6 13 7 14 8 16 9 6 10 3 11 4 12
REMARK SMILES IDX 18 13 5 14 17 15 2 16 1 17 15 18
REMARK H PARENT 15 19 15 20
ROOT
ATOM      1  C   UNL     1      54.240 -33.843  17.410  1.00  0.00     0.058 A 
ATOM      2  C   UNL     1      55.324 -33.109  17.071  1.00  0.00     0.027 A 
ATOM      3  C   UNL     1      56.317 -32.775  18.078  1.00  0.00     0.006 A 
ATOM      4  C   UNL     1      56.184 -33.182  19.353  1.00  0.00     0.050 A 
ATOM      5  C   UNL     1      55.053 -33.955  19.730  1.00  0.00     0.162 A 
ATOM      6  N   UNL     1      54.692 -34.466  20.884  1.00  0.00    -0.128 NA
ATOM      7  N   UNL     1      53.506 -35.129  20.693  1.00  0.00    -0.111 NA
ATOM      8  C   UNL     1      53.154 -35.009  19.431  1.00  0.00     0.226 A 
ATOM      9  N   UNL     1      54.112 -34.265  18.751  1.00  0.00    -0.262 N 
ENDROOT
BRANCH   1  10
ATOM     10  C   UNL     1      53.267 -34.160  16.358  1.00  0.00    -0.001 A 
ATOM     11  C   UNL     1      51.393 -34.746  14.335  1.00  0.00    -0.026 A 
ATOM     12  C   UNL     1      50.993 -34.658  15.674  1.00  0.00     0.009 A 
ATOM     13  C   UNL     1      52.746 -34.565  14.024  1.00  0.00     0.009 A 
ATOM     14  C   UNL     1      51.921 -34.365  16.679  1.00  0.00     0.011 A 
ATOM     15  C   UNL     1      53.677 -34.270  15.025  1.00  0.00     0.011 A 
BRANCH  11  16
ATOM     16  C   UNL     1      50.455 -35.080  13.254  1.00  0.00     0.000 C 
ATOM     17  C   UNL     1      49.411 -35.908  13.383  1.00  0.00     0.009 C 
ENDBRANCH  11  16
ENDBRANCH   1  10
BRANCH   8  18
ATOM     18  N   UNL     1      52.038 -35.524  18.872  1.00  0.00    -0.368 N 
ATOM     19  H   UNL     1      52.058 -35.891  17.926  1.00  0.00     0.159 HD
ATOM     20  H   UNL     1      51.178 -35.023  19.079  1.00  0.00     0.159 HD
ENDBRANCH   8  18
TORSDOF 3
ENDMDL
MODEL 5
REMARK VINA RESULT:      -7.0      8.002     10.738
REMARK SMILES C=Cc1ccc(-c2cccc3nnc(N)n23)cc1
REMARK SMILES IDX 7 1 8 2 9 3 10 4 11 5 12 6 13 7 14 8 16 9 6 10 3 11 4 12
REMARK SMILES IDX 18 13 5 14 17 15 2 16 1 17 15 18
REMARK H PARENT 15 19 15 20
ROOT
ATOM      1  C   UNL     1      57.783 -29.076  26.487  1.00  0.00     0.058 A 
ATOM      2  C   UNL     1      56.821 -29.126  27.435  1.00  0.00     0.027 A 
ATOM      3  C   UNL     1      55.511 -29.664  27.109  1.00  0.00     0.006 A 
ATOM      4  C   UNL     1      55.229 -30.119  25.875  1.00  0.00     0.050 A 
ATOM      5  C   UNL     1      56.227 -30.076  24.866  1.00  0.00     0.162 A 
ATOM      6  N   UNL     1      56.209 -30.448  23.606  1.00  0.00    -0.128 NA
ATOM      7  N   UNL     1      57.449 -30.185  23.077  1.00  0.00    -0.111 NA
ATOM      8  C   UNL     1      58.203 -29.652  24.014  1.00  0.00     0.226 A 
ATOM      9  N   UNL     1      57.476 -29.556  25.196  1.00  0.00    -0.262 N 
ENDROOT
BRANCH   1  10
ATOM     10  C   UNL     1      59.092 -28.528  26.864  1.00  0.00    -0.001 A 
ATOM     11  C   UNL     1      61.614 -27.480  27.566  1.00  0.00    -0.026 A 
ATOM     12  C   UNL     1      61.379 -28.860  27.605  1.00  0.00     0.009 A 
ATOM     13  C   UNL     1      60.564 -26.629  27.198  1.00  0.00     0.009 A 
ATOM     14  C   UNL     1      60.130 -29.382  27.255  1.00  0.00     0.011 A 
ATOM     15  C   UNL     1      59.314 -27.147  26.845  1.00  0.00     0.011 A 
BRANCH  11  16
ATOM     16  C   UNL     1      62.902 -26.890  27.953  1.00  0.00     0.000 C 
ATOM     17  C   UNL     1      63.066 -26.010  28.949  1.00  0.00     0.009 C 
ENDBRANCH  11  16
ENDBRANCH   1  10
BRANCH   8  18
ATOM     18  N   UNL     1      59.484 -29.255  23.863  1.00  0.00    -0.368 N 
ATOM     19  H   UNL     1      60.213 -29.624  24.465  1.00  0.00     0.159 HD
ATOM     20  H   UNL     1      59.611 -28.268  23.655  1.00  0.00     0.159 HD
ENDBRANCH   8  18
TORSDOF 3
ENDMDL
MODEL 6
REMARK VINA RESULT:      -6.7      4.213      6.370
REMARK SMILES C=Cc1ccc(-c2cccc3nnc(N)n23)cc1
REMARK SMILES IDX 7 1 8 2 9 3 10 4 11 5 12 6 13 7 14 8 16 9 6 10 3 11 4 12
REMARK SMILES IDX 18 13 5 14 17 15 2 16 1 17 15 18
REMARK H PARENT 15 19 15 20
ROOT
ATOM      1  C   UNL     1      50.644 -35.152  13.588  1.00  0.00     0.058 A 
ATOM      2  C   UNL     1      49.715 -36.081  13.905  1.00  0.00     0.027 A 
ATOM      3  C   UNL     1      48.715 -36.469  12.924  1.00  0.00     0.006 A 
ATOM      4  C   UNL     1      48.691 -35.923  11.696  1.00  0.00     0.050 A 
ATOM      5  C   UNL     1      49.659 -34.945  11.343  1.00  0.00     0.162 A 
ATOM      6  N   UNL     1      49.852 -34.269  10.233  1.00  0.00    -0.128 NA
ATOM      7  N   UNL     1      50.937 -33.450  10.428  1.00  0.00    -0.111 NA
ATOM      8  C   UNL     1      51.387 -33.629  11.651  1.00  0.00     0.226 A 
ATOM      9  N   UNL     1      50.610 -34.585  12.296  1.00  0.00    -0.262 N 
ENDROOT
BRANCH   1  10
ATOM     10  C   UNL     1      51.637 -34.796  14.609  1.00  0.00    -0.001 A 
ATOM     11  C   UNL     1      53.546 -34.134  16.576  1.00  0.00    -0.026 A 
ATOM     12  C   UNL     1      52.191 -34.254  16.909  1.00  0.00     0.009 A 
ATOM     13  C   UNL     1      53.930 -34.322  15.242  1.00  0.00     0.009 A 
ATOM     14  C   UNL     1      51.243 -34.585  15.935  1.00  0.00     0.011 A 
ATOM     15  C   UNL     1      52.986 -34.654  14.265  1.00  0.00     0.011 A 
BRANCH  11  16
ATOM     16  C   UNL     1      54.569 -33.761  17.562  1.00  0.00     0.000 C 
ATOM     17  C   UNL     1      55.722 -33.148  17.266  1.00  0.00     0.009 C 
ENDBRANCH  11  16
ENDBRANCH   1  10
BRANCH   8  18
ATOM     18  N   UNL     1      52.439 -32.990  12.204  1.00  0.00    -0.368 N 
ATOM     19  H   UNL     1      52.464 -32.807  13.202  1.00  0.00     0.159 HD
ATOM     20  H   UNL     1      52.818 -32.223  11.656  1.00  0.00     0.159 HD
ENDBRANCH   8  18
TORSDOF 3
ENDMDL
MODEL 7
REMARK VINA RESULT:      -6.7      3.737      6.052
REMARK SMILES C=Cc1ccc(-c2cccc3nnc(N)n23)cc1
REMARK SMILES IDX 7 1 8 2 9 3 10 4 11 5 12 6 13 7 14 8 16 9 6 10 3 11 4 12
REMARK SMILES IDX 18 13 5 14 17 15 2 16 1 17 15 18
REMARK H PARENT 15 19 15 20
ROOT
ATOM      1  C   UNL     1      51.481 -33.932  13.014  1.00  0.00     0.058 A 
ATOM      2  C   UNL     1      52.134 -32.933  12.380  1.00  0.00     0.027 A 
ATOM      3  C   UNL     1      51.762 -32.571  11.022  1.00  0.00     0.006 A 
ATOM      4  C   UNL     1      50.772 -33.211  10.374  1.00  0.00     0.050 A 
ATOM      5  C   UNL     1      50.074 -34.264  11.023  1.00  0.00     0.162 A 
ATOM      6  N   UNL     1      49.090 -35.035  10.621  1.00  0.00    -0.128 NA
ATOM      7  N   UNL     1      48.786 -35.892  11.649  1.00  0.00    -0.111 NA
ATOM      8  C   UNL     1      49.590 -35.641  12.660  1.00  0.00     0.226 A 
ATOM      9  N   UNL     1      50.445 -34.597  12.324  1.00  0.00    -0.262 N 
ENDROOT
BRANCH   1  10
ATOM     10  C   UNL     1      51.889 -34.258  14.386  1.00  0.00    -0.001 A 
ATOM     11  C   UNL     1      52.668 -34.908  17.017  1.00  0.00    -0.026 A 
ATOM     12  C   UNL     1      51.321 -34.689  16.706  1.00  0.00     0.009 A 
ATOM     13  C   UNL     1      53.624 -34.771  16.002  1.00  0.00     0.009 A 
ATOM     14  C   UNL     1      50.932 -34.369  15.400  1.00  0.00     0.011 A 
ATOM     15  C   UNL     1      53.239 -34.453  14.696  1.00  0.00     0.011 A 
BRANCH  11  16
ATOM     16  C   UNL     1      53.121 -35.218  18.379  1.00  0.00     0.000 C 
ATOM     17  C   UNL     1      53.925 -34.435  19.109  1.00  0.00     0.009 C 
ENDBRANCH  11  16
ENDBRANCH   1  10
BRANCH   8  18
ATOM     18  N   UNL     1      49.593 -36.289  13.844  1.00  0.00    -0.368 N 
ATOM     19  H   UNL     1      49.948 -35.835  14.679  1.00  0.00     0.159 HD
ATOM     20  H   UNL     1      49.841 -37.274  13.799  1.00  0.00     0.159 HD
ENDBRANCH   8  18
TORSDOF 3
ENDMDL
MODEL 8
REMARK VINA RESULT:      -6.7      2.902      7.336
REMARK SMILES C=Cc1ccc(-c2cccc3nnc(N)n23)cc1
REMARK SMILES IDX 7 1 8 2 9 3 10 4 11 5 12 6 13 7 14 8 16 9 6 10 3 11 4 12
REMARK SMILES IDX 18 13 5 14 17 15 2 16 1 17 15 18
REMARK H PARENT 15 19 15 20
ROOT
ATOM      1  C   UNL     1      52.777 -34.260  15.569  1.00  0.00     0.058 A 
ATOM      2  C   UNL     1      54.059 -33.897  15.799  1.00  0.00     0.027 A 
ATOM      3  C   UNL     1      54.643 -34.093  17.115  1.00  0.00     0.006 A 
ATOM      4  C   UNL     1      53.933 -34.634  18.121  1.00  0.00     0.050 A 
ATOM      5  C   UNL     1      52.585 -35.023  17.900  1.00  0.00     0.162 A 
ATOM      6  N   UNL     1      51.691 -35.562  18.697  1.00  0.00    -0.128 NA
ATOM      7  N   UNL     1      50.538 -35.737  17.972  1.00  0.00    -0.111 NA
ATOM      8  C   UNL     1      50.739 -35.298  16.748  1.00  0.00     0.226 A 
ATOM      9  N   UNL     1      52.042 -34.826  16.632  1.00  0.00    -0.262 N 
ENDROOT
BRANCH   1  10
ATOM     10  C   UNL     1      52.233 -34.047  14.223  1.00  0.00    -0.001 A 
ATOM     11  C   UNL     1      51.165 -33.636  11.645  1.00  0.00    -0.026 A 
ATOM     12  C   UNL     1      51.290 -34.929  12.168  1.00  0.00     0.009 A 
ATOM     13  C   UNL     1      51.606 -32.553  12.417  1.00  0.00     0.009 A 
ATOM     14  C   UNL     1      51.817 -35.134  13.448  1.00  0.00     0.011 A 
ATOM     15  C   UNL     1      52.133 -32.754  13.696  1.00  0.00     0.011 A 
BRANCH  11  16
ATOM     16  C   UNL     1      50.643 -33.380  10.296  1.00  0.00     0.000 C 
ATOM     17  C   UNL     1      49.786 -32.399   9.988  1.00  0.00     0.009 C 
ENDBRANCH  11  16
ENDBRANCH   1  10
BRANCH   8  18
ATOM     18  N   UNL     1      49.828 -35.300  15.752  1.00  0.00    -0.368 N 
ATOM     19  H   UNL     1      48.840 -35.400  15.957  1.00  0.00     0.159 HD
ATOM     20  H   UNL     1      50.106 -35.800  14.911  1.00  0.00     0.159 HD
ENDBRANCH   8  18
TORSDOF 3
ENDMDL
MODEL 9
REMARK VINA RESULT:      -6.5     10.479     12.287
REMARK SMILES C=Cc1ccc(-c2cccc3nnc(N)n23)cc1
REMARK SMILES IDX 7 1 8 2 9 3 10 4 11 5 12 6 13 7 14 8 16 9 6 10 3 11 4 12
REMARK SMILES IDX 18 13 5 14 17 15 2 16 1 17 15 18
REMARK H PARENT 15 19 15 20
ROOT
ATOM      1  C   UNL     1      61.218 -28.249  24.492  1.00  0.00     0.058 A 
ATOM      2  C   UNL     1      61.734 -28.555  23.281  1.00  0.00     0.027 A 
ATOM      3  C   UNL     1      63.135 -28.922  23.162  1.00  0.00     0.006 A 
ATOM      4  C   UNL     1      63.940 -28.967  24.238  1.00  0.00     0.050 A 
ATOM      5  C   UNL     1      63.417 -28.650  25.520  1.00  0.00     0.162 A 
ATOM      6  N   UNL     1      63.979 -28.617  26.707  1.00  0.00    -0.128 NA
ATOM      7  N   UNL     1      63.016 -28.247  27.613  1.00  0.00    -0.111 NA
ATOM      8  C   UNL     1      61.884 -28.053  26.971  1.00  0.00     0.226 A 
ATOM      9  N   UNL     1      62.072 -28.300  25.615  1.00  0.00    -0.262 N 
ENDROOT
BRANCH   1  10
ATOM     10  C   UNL     1      59.797 -27.889  24.564  1.00  0.00    -0.001 A 
ATOM     11  C   UNL     1      57.068 -27.199  24.724  1.00  0.00    -0.026 A 
ATOM     12  C   UNL     1      57.463 -28.541  24.695  1.00  0.00     0.009 A 
ATOM     13  C   UNL     1      58.053 -26.206  24.645  1.00  0.00     0.009 A 
ATOM     14  C   UNL     1      58.817 -28.886  24.618  1.00  0.00     0.011 A 
ATOM     15  C   UNL     1      59.407 -26.545  24.569  1.00  0.00     0.011 A 
BRANCH  11  16
ATOM     16  C   UNL     1      55.656 -26.795  24.777  1.00  0.00     0.000 C 
ATOM     17  C   UNL     1      54.801 -27.149  25.744  1.00  0.00     0.009 C 
ENDBRANCH  11  16
ENDBRANCH   1  10
BRANCH   8  18
ATOM     18  N   UNL     1      60.716 -27.673  27.530  1.00  0.00    -0.368 N 
ATOM     19  H   UNL     1      60.009 -27.201  26.976  1.00  0.00     0.159 HD
ATOM     20  H   UNL     1      60.788 -27.300  28.472  1.00  0.00     0.159 HD
ENDBRANCH   8  18
TORSDOF 3
ENDMDL
MODEL 10
REMARK VINA RESULT:      -6.5     10.740     12.671
REMARK SMILES C=Cc1ccc(-c2cccc3nnc(N)n23)cc1
REMARK SMILES IDX 7 1 8 2 9 3 10 4 11 5 12 6 13 7 14 8 16 9 6 10 3 11 4 12
REMARK SMILES IDX 18 13 5 14 17 15 2 16 1 17 15 18
REMARK H PARENT 15 19 15 20
ROOT
ATOM      1  C   UNL     1      61.610 -28.229  26.592  1.00  0.00     0.058 A 
ATOM      2  C   UNL     1      62.394 -28.121  27.688  1.00  0.00     0.027 A 
ATOM      3  C   UNL     1      63.835 -28.265  27.565  1.00  0.00     0.006 A 
ATOM      4  C   UNL     1      64.415 -28.503  26.375  1.00  0.00     0.050 A 
ATOM      5  C   UNL     1      63.609 -28.619  25.212  1.00  0.00     0.162 A 
ATOM      6  N   UNL     1      63.918 -28.847  23.956  1.00  0.00    -0.128 NA
ATOM      7  N   UNL     1      62.750 -28.858  23.235  1.00  0.00    -0.111 NA
ATOM      8  C   UNL     1      61.744 -28.646  24.056  1.00  0.00     0.226 A 
ATOM      9  N   UNL     1      62.229 -28.480  25.349  1.00  0.00    -0.262 N 
ENDROOT
BRANCH   1  10
ATOM     10  C   UNL     1      60.161 -28.072  26.765  1.00  0.00    -0.001 A 
ATOM     11  C   UNL     1      57.374 -27.774  27.074  1.00  0.00    -0.026 A 
ATOM     12  C   UNL     1      58.175 -26.678  26.731  1.00  0.00     0.009 A 
ATOM     13  C   UNL     1      57.988 -29.015  27.287  1.00  0.00     0.009 A 
ATOM     14  C   UNL     1      59.557 -26.824  26.575  1.00  0.00     0.011 A 
ATOM     15  C   UNL     1      59.369 -29.166  27.131  1.00  0.00     0.011 A 
BRANCH  11  16
ATOM     16  C   UNL     1      55.923 -27.656  27.275  1.00  0.00     0.000 C 
ATOM     17  C   UNL     1      55.048 -27.327  26.317  1.00  0.00     0.009 C 
ENDBRANCH  11  16
ENDBRANCH   1  10
BRANCH   8  18
ATOM     18  N   UNL     1      60.441 -28.596  23.710  1.00  0.00    -0.368 N 
ATOM     19  H   UNL     1      59.802 -27.974  24.194  1.00  0.00     0.159 HD
ATOM     20  H   UNL     1      60.018 -29.492  23.483  1.00  0.00     0.159 HD
ENDBRANCH   8  18
TORSDOF 3
ENDMDL
