MODEL 1
REMARK VINA RESULT:      -9.4      0.000      0.000
REMARK SMILES CC(=O)Nc1ccc(-n2nc3ccc(N)nc3n2)cc1
REMARK SMILES IDX 9 1 10 2 11 3 12 4 13 5 14 6 16 7 17 8 18 9 8 10 5 11 6 12
REMARK SMILES IDX 20 13 7 14 19 15 4 16 2 17 3 18 1 19 15 21
REMARK H PARENT 4 20 15 22 15 23
ROOT
ATOM      1  N   UNL     1      54.115 -34.476  19.288  1.00  0.00    -0.149 N 
ATOM      2  N   UNL     1      54.840 -35.491  19.830  1.00  0.00    -0.146 NA
ATOM      3  C   UNL     1      55.595 -34.865  20.745  1.00  0.00     0.132 A 
ATOM      4  C   UNL     1      56.550 -35.390  21.624  1.00  0.00     0.038 A 
ATOM      5  C   UNL     1      57.130 -34.408  22.437  1.00  0.00     0.049 A 
ATOM      6  C   UNL     1      56.754 -33.046  22.348  1.00  0.00     0.126 A 
ATOM      7  N   UNL     1      55.838 -32.525  21.500  1.00  0.00    -0.208 NA
ATOM      8  C   UNL     1      55.262 -33.458  20.700  1.00  0.00     0.204 A 
ATOM      9  N   UNL     1      54.327 -33.234  19.782  1.00  0.00    -0.128 NA
ENDROOT
BRANCH   1  10
ATOM     10  C   UNL     1      53.171 -34.709  18.249  1.00  0.00     0.086 A 
ATOM     11  C   UNL     1      51.304 -35.168  16.190  1.00  0.00     0.041 A 
ATOM     12  C   UNL     1      51.057 -35.620  17.493  1.00  0.00     0.028 A 
ATOM     13  C   UNL     1      52.494 -34.486  15.928  1.00  0.00     0.028 A 
ATOM     14  C   UNL     1      51.982 -35.394  18.519  1.00  0.00     0.032 A 
ATOM     15  C   UNL     1      53.424 -34.255  16.949  1.00  0.00     0.032 A 
BRANCH  11  16
ATOM     16  N   UNL     1      50.319 -35.441  15.218  1.00  0.00    -0.326 N 
ATOM     17  C   UNL     1      50.460 -35.401  13.843  1.00  0.00     0.221 C 
ATOM     18  O   UNL     1      51.466 -35.102  13.210  1.00  0.00    -0.275 OA
ATOM     19  C   UNL     1      49.176 -35.749  13.130  1.00  0.00     0.114 C 
ATOM     20  H   UNL     1      49.404 -35.684  15.574  1.00  0.00     0.169 HD
ENDBRANCH  11  16
ENDBRANCH   1  10
BRANCH   6  21
ATOM     21  N   UNL     1      57.400 -32.125  23.179  1.00  0.00    -0.384 N 
ATOM     22  H   UNL     1      58.373 -32.367  23.333  1.00  0.00     0.158 HD
ATOM     23  H   UNL     1      56.879 -32.088  24.054  1.00  0.00     0.158 HD
ENDBRANCH   6  21
TORSDOF 3
ENDMDL
MODEL 2
REMARK VINA RESULT:      -9.2      2.535      8.504
REMARK SMILES CC(=O)Nc1ccc(-n2nc3ccc(N)nc3n2)cc1
REMARK SMILES IDX 9 1 10 2 11 3 12 4 13 5 14 6 16 7 17 8 18 9 8 10 5 11 6 12
REMARK SMILES IDX 20 13 7 14 19 15 4 16 2 17 3 18 1 19 15 21
REMARK H PARENT 4 20 15 22 15 23
ROOT
ATOM      1  N   UNL     1      52.008 -34.799  15.339  1.00  0.00    -0.149 N 
ATOM      2  N   UNL     1      52.411 -34.349  14.120  1.00  0.00    -0.146 NA
ATOM      3  C   UNL     1      51.395 -34.703  13.319  1.00  0.00     0.132 A 
ATOM      4  C   UNL     1      51.236 -34.509  11.942  1.00  0.00     0.038 A 
ATOM      5  C   UNL     1      50.025 -35.024  11.463  1.00  0.00     0.049 A 
ATOM      6  C   UNL     1      49.091 -35.656  12.317  1.00  0.00     0.126 A 
ATOM      7  N   UNL     1      49.233 -35.854  13.648  1.00  0.00    -0.208 NA
ATOM      8  C   UNL     1      50.402 -35.365  14.135  1.00  0.00     0.204 A 
ATOM      9  N   UNL     1      50.803 -35.412  15.403  1.00  0.00    -0.128 NA
ENDROOT
BRANCH   1  10
ATOM     10  C   UNL     1      52.815 -34.629  16.498  1.00  0.00     0.086 A 
ATOM     11  C   UNL     1      54.410 -34.295  18.796  1.00  0.00     0.041 A 
ATOM     12  C   UNL     1      54.795 -33.735  17.571  1.00  0.00     0.028 A 
ATOM     13  C   UNL     1      53.221 -35.024  18.860  1.00  0.00     0.028 A 
ATOM     14  C   UNL     1      54.006 -33.898  16.427  1.00  0.00     0.032 A 
ATOM     15  C   UNL     1      52.425 -35.192  17.720  1.00  0.00     0.032 A 
BRANCH  11  16
ATOM     16  N   UNL     1      55.266 -34.082  19.896  1.00  0.00    -0.326 N 
ATOM     17  C   UNL     1      55.705 -35.018  20.815  1.00  0.00     0.221 C 
ATOM     18  O   UNL     1      55.415 -36.208  20.855  1.00  0.00    -0.275 OA
ATOM     19  C   UNL     1      56.609 -34.410  21.860  1.00  0.00     0.114 C 
ATOM     20  H   UNL     1      55.586 -33.132  20.029  1.00  0.00     0.169 HD
ENDBRANCH  11  16
ENDBRANCH   1  10
BRANCH   6  21
ATOM     21  N   UNL     1      47.915 -36.164  11.754  1.00  0.00    -0.384 N 
ATOM     22  H   UNL     1      47.604 -35.614  10.961  1.00  0.00     0.158 HD
ATOM     23  H   UNL     1      47.213 -36.191  12.492  1.00  0.00     0.158 HD
ENDBRANCH   6  21
TORSDOF 3
ENDMDL
MODEL 3
REMARK VINA RESULT:      -9.1      2.800      8.056
REMARK SMILES CC(=O)Nc1ccc(-n2nc3ccc(N)nc3n2)cc1
REMARK SMILES IDX 9 1 10 2 11 3 12 4 13 5 14 6 16 7 17 8 18 9 8 10 5 11 6 12
REMARK SMILES IDX 20 13 7 14 19 15 4 16 2 17 3 18 1 19 15 21
REMARK H PARENT 4 20 15 22 15 23
ROOT
ATOM      1  N   UNL     1      53.022 -34.493  16.665  1.00  0.00    -0.149 N 
ATOM      2  N   UNL     1      53.338 -33.965  15.452  1.00  0.00    -0.146 NA
ATOM      3  C   UNL     1      52.304 -34.339  14.684  1.00  0.00     0.132 A 
ATOM      4  C   UNL     1      52.066 -34.092  13.327  1.00  0.00     0.038 A 
ATOM      5  C   UNL     1      50.862 -34.653  12.882  1.00  0.00     0.049 A 
ATOM      6  C   UNL     1      50.008 -35.376  13.748  1.00  0.00     0.126 A 
ATOM      7  N   UNL     1      50.228 -35.626  15.059  1.00  0.00    -0.208 NA
ATOM      8  C   UNL     1      51.391 -35.094  15.514  1.00  0.00     0.204 A 
ATOM      9  N   UNL     1      51.858 -35.176  16.757  1.00  0.00    -0.128 NA
ENDROOT
BRANCH   1  10
ATOM     10  C   UNL     1      53.877 -34.331  17.791  1.00  0.00     0.086 A 
ATOM     11  C   UNL     1      55.572 -34.008  20.019  1.00  0.00     0.041 A 
ATOM     12  C   UNL     1      54.393 -34.759  20.120  1.00  0.00     0.028 A 
ATOM     13  C   UNL     1      55.893 -33.420  18.793  1.00  0.00     0.028 A 
ATOM     14  C   UNL     1      53.548 -34.922  19.016  1.00  0.00     0.032 A 
ATOM     15  C   UNL     1      55.053 -33.579  17.684  1.00  0.00     0.032 A 
BRANCH  11  16
ATOM     16  N   UNL     1      56.362 -33.895  21.180  1.00  0.00    -0.326 N 
ATOM     17  C   UNL     1      56.906 -34.921  21.933  1.00  0.00     0.221 C 
ATOM     18  O   UNL     1      56.784 -36.125  21.739  1.00  0.00    -0.275 OA
ATOM     19  C   UNL     1      57.690 -34.406  23.115  1.00  0.00     0.114 C 
ATOM     20  H   UNL     1      56.543 -32.952  21.501  1.00  0.00     0.169 HD
ENDBRANCH  11  16
ENDBRANCH   1  10
BRANCH   6  21
ATOM     21  N   UNL     1      48.835 -35.924  13.218  1.00  0.00    -0.384 N 
ATOM     22  H   UNL     1      48.718 -36.896  13.480  1.00  0.00     0.158 HD
ATOM     23  H   UNL     1      48.878 -35.809  12.207  1.00  0.00     0.158 HD
ENDBRANCH   6  21
TORSDOF 3
ENDMDL
MODEL 4
REMARK VINA RESULT:      -9.0      1.892      3.156
REMARK SMILES CC(=O)Nc1ccc(-n2nc3ccc(N)nc3n2)cc1
REMARK SMILES IDX 9 1 10 2 11 3 12 4 13 5 14 6 16 7 17 8 18 9 8 10 5 11 6 12
REMARK SMILES IDX 20 13 7 14 19 15 4 16 2 17 3 18 1 19 15 21
REMARK H PARENT 4 20 15 22 15 23
ROOT
ATOM      1  N   UNL     1      53.157 -34.334  16.860  1.00  0.00    -0.149 N 
ATOM      2  N   UNL     1      54.134 -33.388  16.838  1.00  0.00    -0.146 NA
ATOM      3  C   UNL     1      54.675 -33.488  18.062  1.00  0.00     0.132 A 
ATOM      4  C   UNL     1      55.729 -32.764  18.633  1.00  0.00     0.038 A 
ATOM      5  C   UNL     1      56.007 -33.165  19.945  1.00  0.00     0.049 A 
ATOM      6  C   UNL     1      55.280 -34.200  20.581  1.00  0.00     0.126 A 
ATOM      7  N   UNL     1      54.257 -34.903  20.044  1.00  0.00    -0.208 NA
ATOM      8  C   UNL     1      53.968 -34.531  18.771  1.00  0.00     0.204 A 
ATOM      9  N   UNL     1      53.020 -35.053  17.998  1.00  0.00    -0.128 NA
ENDROOT
BRANCH   1  10
ATOM     10  C   UNL     1      52.317 -34.560  15.735  1.00  0.00     0.086 A 
ATOM     11  C   UNL     1      50.650 -35.012  13.508  1.00  0.00     0.041 A 
ATOM     12  C   UNL     1      51.889 -34.374  13.356  1.00  0.00     0.028 A 
ATOM     13  C   UNL     1      50.255 -35.420  14.783  1.00  0.00     0.028 A 
ATOM     14  C   UNL     1      52.720 -34.148  14.460  1.00  0.00     0.032 A 
ATOM     15  C   UNL     1      51.080 -35.198  15.893  1.00  0.00     0.032 A 
BRANCH  11  16
ATOM     16  N   UNL     1      49.877 -35.197  12.344  1.00  0.00    -0.326 N 
ATOM     17  C   UNL     1      48.898 -36.150  12.126  1.00  0.00     0.221 C 
ATOM     18  O   UNL     1      48.533 -37.026  12.901  1.00  0.00    -0.275 OA
ATOM     19  C   UNL     1      48.294 -36.040  10.747  1.00  0.00     0.114 C 
ATOM     20  H   UNL     1      50.071 -34.563  11.579  1.00  0.00     0.169 HD
ENDBRANCH  11  16
ENDBRANCH   1  10
BRANCH   6  21
ATOM     21  N   UNL     1      55.606 -34.523  21.903  1.00  0.00    -0.384 N 
ATOM     22  H   UNL     1      54.911 -34.184  22.559  1.00  0.00     0.158 HD
ATOM     23  H   UNL     1      56.526 -34.130  22.093  1.00  0.00     0.158 HD
ENDBRANCH   6  21
TORSDOF 3
ENDMDL
MODEL 5
REMARK VINA RESULT:      -8.8      2.718      8.279
REMARK SMILES CC(=O)Nc1ccc(-n2nc3ccc(N)nc3n2)cc1
REMARK SMILES IDX 9 1 10 2 11 3 12 4 13 5 14 6 16 7 17 8 18 9 8 10 5 11 6 12
REMARK SMILES IDX 20 13 7 14 19 15 4 16 2 17 3 18 1 19 15 21
REMARK H PARENT 4 20 15 22 15 23
ROOT
ATOM      1  N   UNL     1      52.261 -34.639  15.533  1.00  0.00    -0.149 N 
ATOM      2  N   UNL     1      51.100 -35.347  15.550  1.00  0.00    -0.146 NA
ATOM      3  C   UNL     1      50.690 -35.280  14.274  1.00  0.00     0.132 A 
ATOM      4  C   UNL     1      49.546 -35.821  13.675  1.00  0.00     0.038 A 
ATOM      5  C   UNL     1      49.469 -35.534  12.306  1.00  0.00     0.049 A 
ATOM      6  C   UNL     1      50.467 -34.781  11.643  1.00  0.00     0.126 A 
ATOM      7  N   UNL     1      51.573 -34.247  12.210  1.00  0.00    -0.208 NA
ATOM      8  C   UNL     1      51.669 -34.511  13.538  1.00  0.00     0.204 A 
ATOM      9  N   UNL     1      52.651 -34.121  14.345  1.00  0.00    -0.128 NA
ENDROOT
BRANCH   1  10
ATOM     10  C   UNL     1      53.035 -34.455  16.712  1.00  0.00     0.086 A 
ATOM     11  C   UNL     1      54.572 -34.086  19.045  1.00  0.00     0.041 A 
ATOM     12  C   UNL     1      53.476 -34.960  19.041  1.00  0.00     0.028 A 
ATOM     13  C   UNL     1      54.890 -33.400  17.872  1.00  0.00     0.028 A 
ATOM     14  C   UNL     1      52.710 -35.146  17.884  1.00  0.00     0.032 A 
ATOM     15  C   UNL     1      54.129 -33.580  16.710  1.00  0.00     0.032 A 
BRANCH  11  16
ATOM     16  N   UNL     1      55.286 -33.959  20.254  1.00  0.00    -0.326 N 
ATOM     17  C   UNL     1      56.107 -34.899  20.851  1.00  0.00     0.221 C 
ATOM     18  O   UNL     1      56.351 -36.030  20.447  1.00  0.00    -0.275 OA
ATOM     19  C   UNL     1      56.695 -34.400  22.148  1.00  0.00     0.114 C 
ATOM     20  H   UNL     1      55.175 -33.079  20.742  1.00  0.00     0.169 HD
ENDBRANCH  11  16
ENDBRANCH   1  10
BRANCH   6  21
ATOM     21  N   UNL     1      50.302 -34.517  10.279  1.00  0.00    -0.384 N 
ATOM     22  H   UNL     1      50.025 -35.345   9.762  1.00  0.00     0.158 HD
ATOM     23  H   UNL     1      51.182 -34.137   9.935  1.00  0.00     0.158 HD
ENDBRANCH   6  21
TORSDOF 3
ENDMDL
MODEL 6
REMARK VINA RESULT:      -8.8      2.540      8.614
REMARK SMILES CC(=O)Nc1ccc(-n2nc3ccc(N)nc3n2)cc1
REMARK SMILES IDX 9 1 10 2 11 3 12 4 13 5 14 6 16 7 17 8 18 9 8 10 5 11 6 12
REMARK SMILES IDX 20 13 7 14 19 15 4 16 2 17 3 18 1 19 15 21
REMARK H PARENT 4 20 15 22 15 23
ROOT
ATOM      1  N   UNL     1      51.787 -34.838  14.881  1.00  0.00    -0.149 N 
ATOM      2  N   UNL     1      52.184 -34.421  13.649  1.00  0.00    -0.146 NA
ATOM      3  C   UNL     1      51.136 -34.739  12.873  1.00  0.00     0.132 A 
ATOM      4  C   UNL     1      50.956 -34.555  11.497  1.00  0.00     0.038 A 
ATOM      5  C   UNL     1      49.713 -35.021  11.050  1.00  0.00     0.049 A 
ATOM      6  C   UNL     1      48.771 -35.600  11.933  1.00  0.00     0.126 A 
ATOM      7  N   UNL     1      48.933 -35.789  13.262  1.00  0.00    -0.208 NA
ATOM      8  C   UNL     1      50.132 -35.346  13.719  1.00  0.00     0.204 A 
ATOM      9  N   UNL     1      50.558 -35.395  14.978  1.00  0.00    -0.128 NA
ENDROOT
BRANCH   1  10
ATOM     10  C   UNL     1      52.626 -34.690  16.021  1.00  0.00     0.086 A 
ATOM     11  C   UNL     1      54.290 -34.397  18.275  1.00  0.00     0.041 A 
ATOM     12  C   UNL     1      53.042 -35.024  18.385  1.00  0.00     0.028 A 
ATOM     13  C   UNL     1      54.697 -33.919  17.028  1.00  0.00     0.028 A 
ATOM     14  C   UNL     1      52.212 -35.171  17.267  1.00  0.00     0.032 A 
ATOM     15  C   UNL     1      53.872 -34.063  15.905  1.00  0.00     0.032 A 
BRANCH  11  16
ATOM     16  N   UNL     1      55.060 -34.290  19.451  1.00  0.00    -0.326 N 
ATOM     17  C   UNL     1      55.771 -33.189  19.895  1.00  0.00     0.221 C 
ATOM     18  O   UNL     1      55.880 -32.104  19.336  1.00  0.00    -0.275 OA
ATOM     19  C   UNL     1      56.480 -33.458  21.200  1.00  0.00     0.114 C 
ATOM     20  H   UNL     1      55.101 -35.119  20.029  1.00  0.00     0.169 HD
ENDBRANCH  11  16
ENDBRANCH   1  10
BRANCH   6  21
ATOM     21  N   UNL     1      47.562 -36.062  11.401  1.00  0.00    -0.384 N 
ATOM     22  H   UNL     1      47.001 -35.309  11.020  1.00  0.00     0.158 HD
ATOM     23  H   UNL     1      47.073 -36.556  12.146  1.00  0.00     0.158 HD
ENDBRANCH   6  21
TORSDOF 3
ENDMDL
MODEL 7
REMARK VINA RESULT:      -8.6      2.036      3.048
REMARK SMILES CC(=O)Nc1ccc(-n2nc3ccc(N)nc3n2)cc1
REMARK SMILES IDX 9 1 10 2 11 3 12 4 13 5 14 6 16 7 17 8 18 9 8 10 5 11 6 12
REMARK SMILES IDX 20 13 7 14 19 15 4 16 2 17 3 18 1 19 15 21
REMARK H PARENT 4 20 15 22 15 23
ROOT
ATOM      1  N   UNL     1      52.882 -34.383  16.610  1.00  0.00    -0.149 N 
ATOM      2  N   UNL     1      52.787 -35.187  17.702  1.00  0.00    -0.146 NA
ATOM      3  C   UNL     1      53.678 -34.649  18.549  1.00  0.00     0.132 A 
ATOM      4  C   UNL     1      54.030 -35.047  19.844  1.00  0.00     0.038 A 
ATOM      5  C   UNL     1      55.009 -34.222  20.412  1.00  0.00     0.049 A 
ATOM      6  C   UNL     1      55.548 -33.113  19.717  1.00  0.00     0.126 A 
ATOM      7  N   UNL     1      55.221 -32.721  18.464  1.00  0.00    -0.208 NA
ATOM      8  C   UNL     1      54.274 -33.507  17.892  1.00  0.00     0.204 A 
ATOM      9  N   UNL     1      53.758 -33.353  16.676  1.00  0.00    -0.128 NA
ENDROOT
BRANCH   1  10
ATOM     10  C   UNL     1      52.092 -34.610  15.449  1.00  0.00     0.086 A 
ATOM     11  C   UNL     1      50.530 -35.058  13.147  1.00  0.00     0.041 A 
ATOM     12  C   UNL     1      50.163 -35.614  14.379  1.00  0.00     0.028 A 
ATOM     13  C   UNL     1      51.686 -34.277  13.078  1.00  0.00     0.028 A 
ATOM     14  C   UNL     1      50.936 -35.394  15.525  1.00  0.00     0.032 A 
ATOM     15  C   UNL     1      52.465 -34.052  14.220  1.00  0.00     0.032 A 
BRANCH  11  16
ATOM     16  N   UNL     1      49.695 -35.332  12.044  1.00  0.00    -0.326 N 
ATOM     17  C   UNL     1      50.017 -36.037  10.898  1.00  0.00     0.221 C 
ATOM     18  O   UNL     1      51.099 -36.540  10.619  1.00  0.00    -0.275 OA
ATOM     19  C   UNL     1      48.858 -36.117   9.935  1.00  0.00     0.114 C 
ATOM     20  H   UNL     1      48.755 -34.961  12.099  1.00  0.00     0.169 HD
ENDBRANCH  11  16
ENDBRANCH   1  10
BRANCH   6  21
ATOM     21  N   UNL     1      56.540 -32.354  20.346  1.00  0.00    -0.384 N 
ATOM     22  H   UNL     1      57.387 -32.890  20.503  1.00  0.00     0.158 HD
ATOM     23  H   UNL     1      56.148 -32.008  21.220  1.00  0.00     0.158 HD
ENDBRANCH   6  21
TORSDOF 3
ENDMDL
MODEL 8
REMARK VINA RESULT:      -8.3      2.743      4.834
REMARK SMILES CC(=O)Nc1ccc(-n2nc3ccc(N)nc3n2)cc1
REMARK SMILES IDX 9 1 10 2 11 3 12 4 13 5 14 6 16 7 17 8 18 9 8 10 5 11 6 12
REMARK SMILES IDX 20 13 7 14 19 15 4 16 2 17 3 18 1 19 15 21
REMARK H PARENT 4 20 15 22 15 23
ROOT
ATOM      1  N   UNL     1      51.862 -34.845  15.264  1.00  0.00    -0.149 N 
ATOM      2  N   UNL     1      52.872 -33.935  15.225  1.00  0.00    -0.146 NA
ATOM      3  C   UNL     1      53.325 -33.935  16.488  1.00  0.00     0.132 A 
ATOM      4  C   UNL     1      54.363 -33.193  17.064  1.00  0.00     0.038 A 
ATOM      5  C   UNL     1      54.536 -33.476  18.424  1.00  0.00     0.049 A 
ATOM      6  C   UNL     1      53.730 -34.423  19.099  1.00  0.00     0.126 A 
ATOM      7  N   UNL     1      52.722 -35.144  18.557  1.00  0.00    -0.208 NA
ATOM      8  C   UNL     1      52.533 -34.885  17.238  1.00  0.00     0.204 A 
ATOM      9  N   UNL     1      51.622 -35.450  16.451  1.00  0.00    -0.128 NA
ENDROOT
BRANCH   1  10
ATOM     10  C   UNL     1      51.093 -35.152  14.107  1.00  0.00     0.086 A 
ATOM     11  C   UNL     1      49.573 -35.757  11.813  1.00  0.00     0.041 A 
ATOM     12  C   UNL     1      49.158 -36.187  13.081  1.00  0.00     0.028 A 
ATOM     13  C   UNL     1      50.756 -35.022  11.706  1.00  0.00     0.028 A 
ATOM     14  C   UNL     1      49.910 -35.889  14.223  1.00  0.00     0.032 A 
ATOM     15  C   UNL     1      51.514 -34.719  12.844  1.00  0.00     0.032 A 
BRANCH  11  16
ATOM     16  N   UNL     1      48.756 -36.103  10.718  1.00  0.00    -0.326 N 
ATOM     17  C   UNL     1      47.608 -35.462  10.288  1.00  0.00     0.221 C 
ATOM     18  O   UNL     1      47.076 -34.480  10.793  1.00  0.00    -0.275 OA
ATOM     19  C   UNL     1      47.000 -36.132   9.080  1.00  0.00     0.114 C 
ATOM     20  H   UNL     1      49.041 -36.921  10.195  1.00  0.00     0.169 HD
ENDBRANCH  11  16
ENDBRANCH   1  10
BRANCH   6  21
ATOM     21  N   UNL     1      53.953 -34.630  20.465  1.00  0.00    -0.384 N 
ATOM     22  H   UNL     1      53.091 -34.608  20.998  1.00  0.00     0.158 HD
ATOM     23  H   UNL     1      54.606 -33.914  20.777  1.00  0.00     0.158 HD
ENDBRANCH   6  21
TORSDOF 3
ENDMDL
MODEL 9
REMARK VINA RESULT:      -7.8      4.799      9.507
REMARK SMILES CC(=O)Nc1ccc(-n2nc3ccc(N)nc3n2)cc1
REMARK SMILES IDX 9 1 10 2 11 3 12 4 13 5 14 6 16 7 17 8 18 9 8 10 5 11 6 12
REMARK SMILES IDX 20 13 7 14 19 15 4 16 2 17 3 18 1 19 15 21
REMARK H PARENT 4 20 15 22 15 23
ROOT
ATOM      1  N   UNL     1      55.704 -32.077  21.710  1.00  0.00    -0.149 N 
ATOM      2  N   UNL     1      56.337 -31.830  20.532  1.00  0.00    -0.146 NA
ATOM      3  C   UNL     1      55.699 -32.638  19.673  1.00  0.00     0.132 A 
ATOM      4  C   UNL     1      55.909 -32.828  18.302  1.00  0.00     0.038 A 
ATOM      5  C   UNL     1      55.030 -33.766  17.747  1.00  0.00     0.049 A 
ATOM      6  C   UNL     1      54.046 -34.420  18.526  1.00  0.00     0.126 A 
ATOM      7  N   UNL     1      53.835 -34.251  19.851  1.00  0.00    -0.208 NA
ATOM      8  C   UNL     1      54.678 -33.347  20.412  1.00  0.00     0.204 A 
ATOM      9  N   UNL     1      54.693 -32.978  21.690  1.00  0.00    -0.128 NA
ENDROOT
BRANCH   1  10
ATOM     10  C   UNL     1      56.083 -31.416  22.911  1.00  0.00     0.086 A 
ATOM     11  C   UNL     1      56.830 -30.106  25.291  1.00  0.00     0.041 A 
ATOM     12  C   UNL     1      57.778 -30.373  24.294  1.00  0.00     0.028 A 
ATOM     13  C   UNL     1      55.507 -30.501  25.086  1.00  0.00     0.028 A 
ATOM     14  C   UNL     1      57.411 -31.023  23.110  1.00  0.00     0.032 A 
ATOM     15  C   UNL     1      55.131 -31.153  23.904  1.00  0.00     0.032 A 
BRANCH  11  16
ATOM     16  N   UNL     1      57.287 -29.448  26.451  1.00  0.00    -0.326 N 
ATOM     17  C   UNL     1      57.442 -28.087  26.642  1.00  0.00     0.221 C 
ATOM     18  O   UNL     1      57.229 -27.197  25.827  1.00  0.00    -0.275 OA
ATOM     19  C   UNL     1      57.964 -27.761  28.020  1.00  0.00     0.114 C 
ATOM     20  H   UNL     1      57.537 -30.046  27.228  1.00  0.00     0.169 HD
ENDBRANCH  11  16
ENDBRANCH   1  10
BRANCH   6  21
ATOM     21  N   UNL     1      53.223 -35.362  17.899  1.00  0.00    -0.384 N 
ATOM     22  H   UNL     1      53.622 -36.294  17.926  1.00  0.00     0.158 HD
ATOM     23  H   UNL     1      53.073 -35.045  16.943  1.00  0.00     0.158 HD
ENDBRANCH   6  21
TORSDOF 3
ENDMDL
MODEL 10
REMARK VINA RESULT:      -7.6      2.940      5.058
REMARK SMILES CC(=O)Nc1ccc(-n2nc3ccc(N)nc3n2)cc1
REMARK SMILES IDX 9 1 10 2 11 3 12 4 13 5 14 6 16 7 17 8 18 9 8 10 5 11 6 12
REMARK SMILES IDX 20 13 7 14 19 15 4 16 2 17 3 18 1 19 15 21
REMARK H PARENT 4 20 15 22 15 23
ROOT
ATOM      1  N   UNL     1      55.988 -31.726  22.383  1.00  0.00    -0.149 N 
ATOM      2  N   UNL     1      57.192 -31.107  22.512  1.00  0.00    -0.146 NA
ATOM      3  C   UNL     1      57.119 -30.560  23.735  1.00  0.00     0.132 A 
ATOM      4  C   UNL     1      58.062 -29.791  24.426  1.00  0.00     0.038 A 
ATOM      5  C   UNL     1      57.613 -29.401  25.694  1.00  0.00     0.049 A 
ATOM      6  C   UNL     1      56.338 -29.773  26.183  1.00  0.00     0.126 A 
ATOM      7  N   UNL     1      55.415 -30.511  25.524  1.00  0.00    -0.208 NA
ATOM      8  C   UNL     1      55.828 -30.900  24.291  1.00  0.00     0.204 A 
ATOM      9  N   UNL     1      55.133 -31.637  23.428  1.00  0.00    -0.128 NA
ENDROOT
BRANCH   1  10
ATOM     10  C   UNL     1      55.643 -32.440  21.202  1.00  0.00     0.086 A 
ATOM     11  C   UNL     1      54.956 -33.858  18.866  1.00  0.00     0.041 A 
ATOM     12  C   UNL     1      55.828 -32.762  18.807  1.00  0.00     0.028 A 
ATOM     13  C   UNL     1      54.432 -34.237  20.104  1.00  0.00     0.028 A 
ATOM     14  C   UNL     1      56.172 -32.055  19.965  1.00  0.00     0.032 A 
ATOM     15  C   UNL     1      54.771 -33.535  21.267  1.00  0.00     0.032 A 
BRANCH  11  16
ATOM     16  N   UNL     1      54.663 -34.511  17.651  1.00  0.00    -0.326 N 
ATOM     17  C   UNL     1      53.909 -34.029  16.596  1.00  0.00     0.221 C 
ATOM     18  O   UNL     1      53.337 -32.947  16.530  1.00  0.00    -0.275 OA
ATOM     19  C   UNL     1      53.812 -35.023  15.465  1.00  0.00     0.114 C 
ATOM     20  H   UNL     1      55.044 -35.443  17.548  1.00  0.00     0.169 HD
ENDBRANCH  11  16
ENDBRANCH   1  10
BRANCH   6  21
ATOM     21  N   UNL     1      55.956 -29.321  27.450  1.00  0.00    -0.384 N 
ATOM     22  H   UNL     1      55.971 -30.064  28.140  1.00  0.00     0.158 HD
ATOM     23  H   UNL     1      55.028 -28.912  27.359  1.00  0.00     0.158 HD
ENDBRANCH   6  21
TORSDOF 3
ENDMDL
