MODEL 1
REMARK VINA RESULT:      -7.8      0.000      0.000
REMARK SMILES CC(=O)c1ccccc1-c1ncnc2[nH]ccc12
REMARK SMILES IDX 4 1 5 2 6 3 7 4 8 5 9 6 2 7 3 8 1 9 10 10 11 11 18 12 12 13
REMARK SMILES IDX 17 14 14 15 13 16 16 17 15 18
REMARK H PARENT 15 19
ROOT
ATOM      1  C   UNL     1      54.815 -33.593  18.063  1.00  0.00     0.027 A 
ATOM      2  C   UNL     1      54.167 -33.968  16.875  1.00  0.00     0.012 A 
ATOM      3  C   UNL     1      53.061 -34.814  16.916  1.00  0.00     0.001 A 
ATOM      4  C   UNL     1      52.601 -35.289  18.140  1.00  0.00     0.001 A 
ATOM      5  C   UNL     1      53.260 -34.934  19.320  1.00  0.00     0.011 A 
ATOM      6  C   UNL     1      54.392 -34.097  19.308  1.00  0.00     0.012 A 
ENDROOT
BRANCH   1   7
ATOM      7  C   UNL     1      55.943 -32.641  17.920  1.00  0.00     0.160 C 
ATOM      8  O   UNL     1      55.773 -31.464  18.228  1.00  0.00    -0.294 OA
ATOM      9  C   UNL     1      57.273 -33.165  17.449  1.00  0.00     0.093 C 
ENDBRANCH   1   7
BRANCH   6  10
ATOM     10  C   UNL     1      55.077 -33.822  20.568  1.00  0.00     0.084 A 
ATOM     11  N   UNL     1      54.818 -32.639  21.182  1.00  0.00    -0.236 NA
ATOM     12  C   UNL     1      55.951 -34.734  21.175  1.00  0.00     0.045 A 
ATOM     13  C   UNL     1      55.436 -32.385  22.351  1.00  0.00     0.224 A 
ATOM     14  C   UNL     1      56.465 -36.035  20.905  1.00  0.00     0.032 A 
ATOM     15  C   UNL     1      56.509 -34.329  22.378  1.00  0.00     0.141 A 
ATOM     16  N   UNL     1      56.299 -33.170  23.019  1.00  0.00    -0.219 NA
ATOM     17  C   UNL     1      57.315 -36.371  21.938  1.00  0.00     0.085 A 
ATOM     18  N   UNL     1      57.332 -35.326  22.825  1.00  0.00    -0.346 N 
ATOM     19  H   UNL     1      57.862 -35.276  23.683  1.00  0.00     0.167 HD
ENDBRANCH   6  10
TORSDOF 2
ENDMDL
MODEL 2
REMARK VINA RESULT:      -7.7      0.824      2.137
REMARK SMILES CC(=O)c1ccccc1-c1ncnc2[nH]ccc12
REMARK SMILES IDX 4 1 5 2 6 3 7 4 8 5 9 6 2 7 3 8 1 9 10 10 11 11 18 12 12 13
REMARK SMILES IDX 17 14 14 15 13 16 16 17 15 18
REMARK H PARENT 15 19
ROOT
ATOM      1  C   UNL     1      54.867 -33.612  18.076  1.00  0.00     0.027 A 
ATOM      2  C   UNL     1      54.046 -33.578  16.937  1.00  0.00     0.012 A 
ATOM      3  C   UNL     1      52.904 -34.373  16.872  1.00  0.00     0.001 A 
ATOM      4  C   UNL     1      52.579 -35.202  17.940  1.00  0.00     0.001 A 
ATOM      5  C   UNL     1      53.409 -35.253  19.064  1.00  0.00     0.011 A 
ATOM      6  C   UNL     1      54.581 -34.477  19.150  1.00  0.00     0.012 A 
ENDROOT
BRANCH   1   7
ATOM      7  C   UNL     1      56.025 -32.686  18.075  1.00  0.00     0.160 C 
ATOM      8  O   UNL     1      55.899 -31.572  18.579  1.00  0.00    -0.294 OA
ATOM      9  C   UNL     1      57.331 -33.163  17.498  1.00  0.00     0.093 C 
ENDBRANCH   1   7
BRANCH   6  10
ATOM     10  C   UNL     1      55.441 -34.629  20.320  1.00  0.00     0.084 A 
ATOM     11  N   UNL     1      56.218 -35.740  20.391  1.00  0.00    -0.236 NA
ATOM     12  C   UNL     1      55.519 -33.670  21.338  1.00  0.00     0.045 A 
ATOM     13  C   UNL     1      57.024 -35.880  21.462  1.00  0.00     0.224 A 
ATOM     14  C   UNL     1      54.928 -32.409  21.640  1.00  0.00     0.032 A 
ATOM     15  C   UNL     1      56.395 -33.956  22.374  1.00  0.00     0.141 A 
ATOM     16  N   UNL     1      57.173 -35.041  22.501  1.00  0.00    -0.219 NA
ATOM     17  C   UNL     1      55.454 -31.978  22.840  1.00  0.00     0.085 A 
ATOM     18  N   UNL     1      56.344 -32.927  23.274  1.00  0.00    -0.346 N 
ATOM     19  H   UNL     1      56.888 -32.895  24.124  1.00  0.00     0.167 HD
ENDBRANCH   6  10
TORSDOF 2
ENDMDL
MODEL 3
REMARK VINA RESULT:      -7.2      1.451      2.570
REMARK SMILES CC(=O)c1ccccc1-c1ncnc2[nH]ccc12
REMARK SMILES IDX 4 1 5 2 6 3 7 4 8 5 9 6 2 7 3 8 1 9 10 10 11 11 18 12 12 13
REMARK SMILES IDX 17 14 14 15 13 16 16 17 15 18
REMARK H PARENT 15 19
ROOT
ATOM      1  C   UNL     1      53.760 -34.528  18.489  1.00  0.00     0.027 A 
ATOM      2  C   UNL     1      53.216 -34.696  17.205  1.00  0.00     0.012 A 
ATOM      3  C   UNL     1      53.959 -34.352  16.077  1.00  0.00     0.001 A 
ATOM      4  C   UNL     1      55.244 -33.841  16.228  1.00  0.00     0.001 A 
ATOM      5  C   UNL     1      55.777 -33.653  17.506  1.00  0.00     0.011 A 
ATOM      6  C   UNL     1      55.042 -33.972  18.665  1.00  0.00     0.012 A 
ENDROOT
BRANCH   1   7
ATOM      7  C   UNL     1      52.916 -34.979  19.620  1.00  0.00     0.160 C 
ATOM      8  O   UNL     1      53.438 -35.171  20.716  1.00  0.00    -0.294 OA
ATOM      9  C   UNL     1      51.435 -35.137  19.398  1.00  0.00     0.093 C 
ENDBRANCH   1   7
BRANCH   6  10
ATOM     10  C   UNL     1      55.628 -33.685  19.971  1.00  0.00     0.084 A 
ATOM     11  N   UNL     1      55.573 -32.405  20.420  1.00  0.00    -0.236 NA
ATOM     12  C   UNL     1      56.206 -34.673  20.780  1.00  0.00     0.045 A 
ATOM     13  C   UNL     1      56.101 -32.137  21.630  1.00  0.00     0.224 A 
ATOM     14  C   UNL     1      56.444 -36.076  20.715  1.00  0.00     0.032 A 
ATOM     15  C   UNL     1      56.706 -34.241  21.999  1.00  0.00     0.141 A 
ATOM     16  N   UNL     1      56.690 -32.991  22.484  1.00  0.00    -0.219 NA
ATOM     17  C   UNL     1      57.080 -36.446  21.882  1.00  0.00     0.085 A 
ATOM     18  N   UNL     1      57.232 -35.321  22.652  1.00  0.00    -0.346 N 
ATOM     19  H   UNL     1      57.663 -35.273  23.564  1.00  0.00     0.167 HD
ENDBRANCH   6  10
TORSDOF 2
ENDMDL
MODEL 4
REMARK VINA RESULT:      -7.2      1.703      3.344
REMARK SMILES CC(=O)c1ccccc1-c1ncnc2[nH]ccc12
REMARK SMILES IDX 4 1 5 2 6 3 7 4 8 5 9 6 2 7 3 8 1 9 10 10 11 11 18 12 12 13
REMARK SMILES IDX 17 14 14 15 13 16 16 17 15 18
REMARK H PARENT 15 19
ROOT
ATOM      1  C   UNL     1      54.211 -34.200  18.948  1.00  0.00     0.027 A 
ATOM      2  C   UNL     1      53.659 -33.852  17.705  1.00  0.00     0.012 A 
ATOM      3  C   UNL     1      54.470 -33.337  16.696  1.00  0.00     0.001 A 
ATOM      4  C   UNL     1      55.832 -33.169  16.924  1.00  0.00     0.001 A 
ATOM      5  C   UNL     1      56.378 -33.495  18.169  1.00  0.00     0.011 A 
ATOM      6  C   UNL     1      55.579 -33.997  19.215  1.00  0.00     0.012 A 
ENDROOT
BRANCH   1   7
ATOM      7  C   UNL     1      53.278 -34.795  19.934  1.00  0.00     0.160 C 
ATOM      8  O   UNL     1      53.571 -34.764  21.127  1.00  0.00    -0.294 OA
ATOM      9  C   UNL     1      51.978 -35.372  19.440  1.00  0.00     0.093 C 
ENDBRANCH   1   7
BRANCH   6  10
ATOM     10  C   UNL     1      56.197 -34.250  20.513  1.00  0.00     0.084 A 
ATOM     11  N   UNL     1      56.578 -35.523  20.793  1.00  0.00    -0.236 NA
ATOM     12  C   UNL     1      56.440 -33.239  21.452  1.00  0.00     0.045 A 
ATOM     13  C   UNL     1      57.161 -35.761  21.983  1.00  0.00     0.224 A 
ATOM     14  C   UNL     1      56.234 -31.833  21.557  1.00  0.00     0.032 A 
ATOM     15  C   UNL     1      57.049 -33.640  22.631  1.00  0.00     0.141 A 
ATOM     16  N   UNL     1      57.431 -34.881  22.963  1.00  0.00    -0.219 NA
ATOM     17  C   UNL     1      56.714 -31.431  22.787  1.00  0.00     0.085 A 
ATOM     18  N   UNL     1      57.205 -32.539  23.428  1.00  0.00    -0.346 N 
ATOM     19  H   UNL     1      57.623 -32.564  24.347  1.00  0.00     0.167 HD
ENDBRANCH   6  10
TORSDOF 2
ENDMDL
MODEL 5
REMARK VINA RESULT:      -7.0      2.272      5.217
REMARK SMILES CC(=O)c1ccccc1-c1ncnc2[nH]ccc12
REMARK SMILES IDX 4 1 5 2 6 3 7 4 8 5 9 6 2 7 3 8 1 9 10 10 11 11 18 12 12 13
REMARK SMILES IDX 17 14 14 15 13 16 16 17 15 18
REMARK H PARENT 15 19
ROOT
ATOM      1  C   UNL     1      56.273 -34.652  21.699  1.00  0.00     0.027 A 
ATOM      2  C   UNL     1      57.157 -34.142  22.664  1.00  0.00     0.012 A 
ATOM      3  C   UNL     1      56.976 -32.857  23.172  1.00  0.00     0.001 A 
ATOM      4  C   UNL     1      55.916 -32.079  22.718  1.00  0.00     0.001 A 
ATOM      5  C   UNL     1      55.050 -32.579  21.741  1.00  0.00     0.011 A 
ATOM      6  C   UNL     1      55.220 -33.866  21.195  1.00  0.00     0.012 A 
ENDROOT
BRANCH   1   7
ATOM      7  C   UNL     1      56.514 -36.050  21.267  1.00  0.00     0.160 C 
ATOM      8  O   UNL     1      56.699 -36.282  20.075  1.00  0.00    -0.294 OA
ATOM      9  C   UNL     1      56.572 -37.129  22.315  1.00  0.00     0.093 C 
ENDBRANCH   1   7
BRANCH   6  10
ATOM     10  C   UNL     1      54.324 -34.301  20.127  1.00  0.00     0.084 A 
ATOM     11  N   UNL     1      53.175 -34.930  20.484  1.00  0.00    -0.236 NA
ATOM     12  C   UNL     1      54.585 -34.066  18.770  1.00  0.00     0.045 A 
ATOM     13  C   UNL     1      52.338 -35.322  19.504  1.00  0.00     0.224 A 
ATOM     14  C   UNL     1      55.605 -33.453  17.989  1.00  0.00     0.032 A 
ATOM     15  C   UNL     1      53.627 -34.528  17.880  1.00  0.00     0.141 A 
ATOM     16  N   UNL     1      52.486 -35.166  18.178  1.00  0.00    -0.219 NA
ATOM     17  C   UNL     1      55.242 -33.567  16.663  1.00  0.00     0.085 A 
ATOM     18  N   UNL     1      54.039 -34.223  16.612  1.00  0.00    -0.346 N 
ATOM     19  H   UNL     1      53.517 -34.456  15.780  1.00  0.00     0.167 HD
ENDBRANCH   6  10
TORSDOF 2
ENDMDL
MODEL 6
REMARK VINA RESULT:      -6.9      6.755      9.877
REMARK SMILES CC(=O)c1ccccc1-c1ncnc2[nH]ccc12
REMARK SMILES IDX 4 1 5 2 6 3 7 4 8 5 9 6 2 7 3 8 1 9 10 10 11 11 18 12 12 13
REMARK SMILES IDX 17 14 14 15 13 16 16 17 15 18
REMARK H PARENT 15 19
ROOT
ATOM      1  C   UNL     1      59.519 -26.885  26.170  1.00  0.00     0.027 A 
ATOM      2  C   UNL     1      60.515 -26.234  26.918  1.00  0.00     0.012 A 
ATOM      3  C   UNL     1      61.488 -26.975  27.585  1.00  0.00     0.001 A 
ATOM      4  C   UNL     1      61.470 -28.364  27.509  1.00  0.00     0.001 A 
ATOM      5  C   UNL     1      60.466 -29.012  26.785  1.00  0.00     0.011 A 
ATOM      6  C   UNL     1      59.457 -28.291  26.117  1.00  0.00     0.012 A 
ENDROOT
BRANCH   1   7
ATOM      7  C   UNL     1      58.567 -26.009  25.448  1.00  0.00     0.160 C 
ATOM      8  O   UNL     1      58.797 -25.714  24.278  1.00  0.00    -0.294 OA
ATOM      9  C   UNL     1      57.323 -25.552  26.162  1.00  0.00     0.093 C 
ENDBRANCH   1   7
BRANCH   6  10
ATOM     10  C   UNL     1      58.397 -29.030  25.437  1.00  0.00     0.084 A 
ATOM     11  N   UNL     1      58.608 -29.391  24.146  1.00  0.00    -0.236 NA
ATOM     12  C   UNL     1      57.203 -29.404  26.068  1.00  0.00     0.045 A 
ATOM     13  C   UNL     1      57.640 -30.084  23.517  1.00  0.00     0.224 A 
ATOM     14  C   UNL     1      56.606 -29.261  27.354  1.00  0.00     0.032 A 
ATOM     15  C   UNL     1      56.304 -30.115  25.290  1.00  0.00     0.141 A 
ATOM     16  N   UNL     1      56.456 -30.485  24.010  1.00  0.00    -0.219 NA
ATOM     17  C   UNL     1      55.373 -29.878  27.313  1.00  0.00     0.085 A 
ATOM     18  N   UNL     1      55.203 -30.393  26.053  1.00  0.00    -0.346 N 
ATOM     19  H   UNL     1      54.398 -30.901  25.717  1.00  0.00     0.167 HD
ENDBRANCH   6  10
TORSDOF 2
ENDMDL
MODEL 7
REMARK VINA RESULT:      -6.8      6.606      9.040
REMARK SMILES CC(=O)c1ccccc1-c1ncnc2[nH]ccc12
REMARK SMILES IDX 4 1 5 2 6 3 7 4 8 5 9 6 2 7 3 8 1 9 10 10 11 11 18 12 12 13
REMARK SMILES IDX 17 14 14 15 13 16 16 17 15 18
REMARK H PARENT 15 19
ROOT
ATOM      1  C   UNL     1      55.941 -28.792  25.032  1.00  0.00     0.027 A 
ATOM      2  C   UNL     1      55.121 -29.857  24.627  1.00  0.00     0.012 A 
ATOM      3  C   UNL     1      55.647 -30.898  23.866  1.00  0.00     0.001 A 
ATOM      4  C   UNL     1      56.991 -30.878  23.505  1.00  0.00     0.001 A 
ATOM      5  C   UNL     1      57.802 -29.806  23.888  1.00  0.00     0.011 A 
ATOM      6  C   UNL     1      57.292 -28.730  24.641  1.00  0.00     0.012 A 
ENDROOT
BRANCH   1   7
ATOM      7  C   UNL     1      55.303 -27.765  25.890  1.00  0.00     0.160 C 
ATOM      8  O   UNL     1      54.665 -26.858  25.361  1.00  0.00    -0.294 OA
ATOM      9  C   UNL     1      55.419 -27.900  27.385  1.00  0.00     0.093 C 
ENDBRANCH   1   7
BRANCH   6  10
ATOM     10  C   UNL     1      58.174 -27.607  24.948  1.00  0.00     0.084 A 
ATOM     11  N   UNL     1      58.004 -26.460  24.244  1.00  0.00    -0.236 NA
ATOM     12  C   UNL     1      59.152 -27.658  25.951  1.00  0.00     0.045 A 
ATOM     13  C   UNL     1      58.805 -25.416  24.531  1.00  0.00     0.224 A 
ATOM     14  C   UNL     1      59.633 -28.605  26.901  1.00  0.00     0.032 A 
ATOM     15  C   UNL     1      59.897 -26.503  26.129  1.00  0.00     0.141 A 
ATOM     16  N   UNL     1      59.780 -25.351  25.454  1.00  0.00    -0.219 NA
ATOM     17  C   UNL     1      60.649 -28.003  27.613  1.00  0.00     0.085 A 
ATOM     18  N   UNL     1      60.798 -26.726  27.134  1.00  0.00    -0.346 N 
ATOM     19  H   UNL     1      61.464 -26.039  27.456  1.00  0.00     0.167 HD
ENDBRANCH   6  10
TORSDOF 2
ENDMDL
MODEL 8
REMARK VINA RESULT:      -6.7      2.919      5.706
REMARK SMILES CC(=O)c1ccccc1-c1ncnc2[nH]ccc12
REMARK SMILES IDX 4 1 5 2 6 3 7 4 8 5 9 6 2 7 3 8 1 9 10 10 11 11 18 12 12 13
REMARK SMILES IDX 17 14 14 15 13 16 16 17 15 18
REMARK H PARENT 15 19
ROOT
ATOM      1  C   UNL     1      55.056 -33.621  18.839  1.00  0.00     0.027 A 
ATOM      2  C   UNL     1      56.372 -33.142  18.739  1.00  0.00     0.012 A 
ATOM      3  C   UNL     1      57.009 -33.094  17.501  1.00  0.00     0.001 A 
ATOM      4  C   UNL     1      56.336 -33.524  16.362  1.00  0.00     0.001 A 
ATOM      5  C   UNL     1      55.035 -34.022  16.465  1.00  0.00     0.011 A 
ATOM      6  C   UNL     1      54.373 -34.102  17.706  1.00  0.00     0.012 A 
ENDROOT
BRANCH   1   7
ATOM      7  C   UNL     1      54.445 -33.575  20.189  1.00  0.00     0.160 C 
ATOM      8  O   UNL     1      53.538 -32.775  20.407  1.00  0.00    -0.294 OA
ATOM      9  C   UNL     1      54.924 -34.549  21.232  1.00  0.00     0.093 C 
ENDBRANCH   1   7
BRANCH   6  10
ATOM     10  C   UNL     1      53.040 -34.697  17.755  1.00  0.00     0.084 A 
ATOM     11  N   UNL     1      52.632 -35.233  18.933  1.00  0.00    -0.236 NA
ATOM     12  C   UNL     1      52.168 -34.705  16.658  1.00  0.00     0.045 A 
ATOM     13  C   UNL     1      51.399 -35.773  18.989  1.00  0.00     0.224 A 
ATOM     14  C   UNL     1      52.178 -34.256  15.306  1.00  0.00     0.032 A 
ATOM     15  C   UNL     1      50.932 -35.297  16.871  1.00  0.00     0.141 A 
ATOM     16  N   UNL     1      50.485 -35.852  18.007  1.00  0.00    -0.219 NA
ATOM     17  C   UNL     1      50.963 -34.591  14.746  1.00  0.00     0.085 A 
ATOM     18  N   UNL     1      50.217 -35.222  15.708  1.00  0.00    -0.346 N 
ATOM     19  H   UNL     1      49.281 -35.586  15.598  1.00  0.00     0.167 HD
ENDBRANCH   6  10
TORSDOF 2
ENDMDL
MODEL 9
REMARK VINA RESULT:      -6.6      2.542      5.058
REMARK SMILES CC(=O)c1ccccc1-c1ncnc2[nH]ccc12
REMARK SMILES IDX 4 1 5 2 6 3 7 4 8 5 9 6 2 7 3 8 1 9 10 10 11 11 18 12 12 13
REMARK SMILES IDX 17 14 14 15 13 16 16 17 15 18
REMARK H PARENT 15 19
ROOT
ATOM      1  C   UNL     1      55.362 -34.168  20.535  1.00  0.00     0.027 A 
ATOM      2  C   UNL     1      56.450 -34.309  21.412  1.00  0.00     0.012 A 
ATOM      3  C   UNL     1      56.919 -35.576  21.751  1.00  0.00     0.001 A 
ATOM      4  C   UNL     1      56.305 -36.704  21.216  1.00  0.00     0.001 A 
ATOM      5  C   UNL     1      55.209 -36.565  20.361  1.00  0.00     0.011 A 
ATOM      6  C   UNL     1      54.699 -35.297  20.017  1.00  0.00     0.012 A 
ENDROOT
BRANCH   1   7
ATOM      7  C   UNL     1      54.977 -32.779  20.189  1.00  0.00     0.160 C 
ATOM      8  O   UNL     1      54.032 -32.258  20.778  1.00  0.00    -0.294 OA
ATOM      9  C   UNL     1      55.791 -32.038  19.162  1.00  0.00     0.093 C 
ENDBRANCH   1   7
BRANCH   6  10
ATOM     10  C   UNL     1      53.508 -35.223  19.176  1.00  0.00     0.084 A 
ATOM     11  N   UNL     1      52.308 -35.478  19.758  1.00  0.00    -0.236 NA
ATOM     12  C   UNL     1      53.553 -34.869  17.821  1.00  0.00     0.045 A 
ATOM     13  C   UNL     1      51.204 -35.399  18.990  1.00  0.00     0.224 A 
ATOM     14  C   UNL     1      54.544 -34.515  16.861  1.00  0.00     0.032 A 
ATOM     15  C   UNL     1      52.332 -34.829  17.165  1.00  0.00     0.141 A 
ATOM     16  N   UNL     1      51.123 -35.085  17.686  1.00  0.00    -0.219 NA
ATOM     17  C   UNL     1      53.900 -34.281  15.663  1.00  0.00     0.085 A 
ATOM     18  N   UNL     1      52.558 -34.475  15.863  1.00  0.00    -0.346 N 
ATOM     19  H   UNL     1      51.828 -34.378  15.172  1.00  0.00     0.167 HD
ENDBRANCH   6  10
TORSDOF 2
ENDMDL
MODEL 10
REMARK VINA RESULT:      -6.5      6.694      9.745
REMARK SMILES CC(=O)c1ccccc1-c1ncnc2[nH]ccc12
REMARK SMILES IDX 4 1 5 2 6 3 7 4 8 5 9 6 2 7 3 8 1 9 10 10 11 11 18 12 12 13
REMARK SMILES IDX 17 14 14 15 13 16 16 17 15 18
REMARK H PARENT 15 19
ROOT
ATOM      1  C   UNL     1      59.391 -26.913  26.220  1.00  0.00     0.027 A 
ATOM      2  C   UNL     1      60.615 -26.293  26.520  1.00  0.00     0.012 A 
ATOM      3  C   UNL     1      61.625 -27.008  27.160  1.00  0.00     0.001 A 
ATOM      4  C   UNL     1      61.416 -28.339  27.503  1.00  0.00     0.001 A 
ATOM      5  C   UNL     1      60.190 -28.949  27.225  1.00  0.00     0.011 A 
ATOM      6  C   UNL     1      59.143 -28.246  26.597  1.00  0.00     0.012 A 
ENDROOT
BRANCH   1   7
ATOM      7  C   UNL     1      58.403 -26.087  25.484  1.00  0.00     0.160 C 
ATOM      8  O   UNL     1      58.453 -26.051  24.257  1.00  0.00    -0.294 OA
ATOM      9  C   UNL     1      57.342 -25.362  26.267  1.00  0.00     0.093 C 
ENDBRANCH   1   7
BRANCH   6  10
ATOM     10  C   UNL     1      57.863 -28.920  26.399  1.00  0.00     0.084 A 
ATOM     11  N   UNL     1      56.968 -28.886  27.419  1.00  0.00    -0.236 NA
ATOM     12  C   UNL     1      57.516 -29.561  25.202  1.00  0.00     0.045 A 
ATOM     13  C   UNL     1      55.780 -29.494  27.238  1.00  0.00     0.224 A 
ATOM     14  C   UNL     1      58.112 -29.805  23.932  1.00  0.00     0.032 A 
ATOM     15  C   UNL     1      56.257 -30.141  25.168  1.00  0.00     0.141 A 
ATOM     16  N   UNL     1      55.342 -30.148  26.149  1.00  0.00    -0.219 NA
ATOM     17  C   UNL     1      57.208 -30.524  23.178  1.00  0.00     0.085 A 
ATOM     18  N   UNL     1      56.086 -30.720  23.941  1.00  0.00    -0.346 N 
ATOM     19  H   UNL     1      55.250 -31.213  23.663  1.00  0.00     0.167 HD
ENDBRANCH   6  10
TORSDOF 2
ENDMDL
