MODEL 1
REMARK VINA RESULT:     -10.0      0.000      0.000
REMARK SMILES CC(=O)c1cccc(-c2cnc3[nH]ccc3c2)c1
REMARK SMILES IDX 4 1 5 2 6 3 7 4 8 5 18 6 2 7 3 8 1 9 9 10 10 11 17 12 11 13
REMARK SMILES IDX 16 14 12 15 15 16 13 17 14 18
REMARK H PARENT 13 19
ROOT
ATOM      1  C   UNL     1      55.462 -34.195  19.680  1.00  0.00     0.018 A 
ATOM      2  C   UNL     1      56.373 -33.260  19.179  1.00  0.00     0.012 A 
ATOM      3  C   UNL     1      56.194 -32.729  17.902  1.00  0.00     0.001 A 
ATOM      4  C   UNL     1      55.108 -33.128  17.121  1.00  0.00     0.009 A 
ATOM      5  C   UNL     1      54.177 -34.067  17.597  1.00  0.00    -0.016 A 
ATOM      6  C   UNL     1      54.373 -34.591  18.886  1.00  0.00     0.020 A 
ENDROOT
BRANCH   1   7
ATOM      7  C   UNL     1      55.604 -34.794  21.041  1.00  0.00     0.159 C 
ATOM      8  O   UNL     1      55.017 -34.290  21.996  1.00  0.00    -0.295 OA
ATOM      9  C   UNL     1      56.476 -36.009  21.217  1.00  0.00     0.093 C 
ENDBRANCH   1   7
BRANCH   5  10
ATOM     10  C   UNL     1      53.031 -34.487  16.773  1.00  0.00     0.001 A 
ATOM     11  C   UNL     1      51.945 -35.181  17.322  1.00  0.00     0.122 A 
ATOM     12  C   UNL     1      52.979 -34.209  15.396  1.00  0.00     0.022 A 
ATOM     13  N   UNL     1      50.842 -35.625  16.665  1.00  0.00    -0.238 NA
ATOM     14  C   UNL     1      51.859 -34.639  14.664  1.00  0.00     0.019 A 
ATOM     15  C   UNL     1      50.867 -35.321  15.356  1.00  0.00     0.137 A 
ATOM     16  C   UNL     1      51.438 -34.563  13.308  1.00  0.00     0.030 A 
ATOM     17  N   UNL     1      49.880 -35.646  14.467  1.00  0.00    -0.346 N 
ATOM     18  C   UNL     1      50.213 -35.192  13.215  1.00  0.00     0.085 A 
ATOM     19  H   UNL     1      49.041 -36.146  14.722  1.00  0.00     0.167 HD
ENDBRANCH   5  10
TORSDOF 2
ENDMDL
MODEL 2
REMARK VINA RESULT:      -9.5      3.501      6.968
REMARK SMILES CC(=O)c1cccc(-c2cnc3[nH]ccc3c2)c1
REMARK SMILES IDX 4 1 5 2 6 3 7 4 8 5 18 6 2 7 3 8 1 9 9 10 10 11 17 12 11 13
REMARK SMILES IDX 16 14 12 15 15 16 13 17 14 18
REMARK H PARENT 13 19
ROOT
ATOM      1  C   UNL     1      52.524 -34.920  17.093  1.00  0.00     0.018 A 
ATOM      2  C   UNL     1      53.113 -34.635  15.857  1.00  0.00     0.012 A 
ATOM      3  C   UNL     1      54.413 -34.132  15.805  1.00  0.00     0.001 A 
ATOM      4  C   UNL     1      55.128 -33.909  16.983  1.00  0.00     0.009 A 
ATOM      5  C   UNL     1      54.563 -34.184  18.240  1.00  0.00    -0.016 A 
ATOM      6  C   UNL     1      53.252 -34.692  18.272  1.00  0.00     0.020 A 
ENDROOT
BRANCH   1   7
ATOM      7  C   UNL     1      51.138 -35.463  17.208  1.00  0.00     0.159 C 
ATOM      8  O   UNL     1      50.684 -35.756  18.311  1.00  0.00    -0.295 OA
ATOM      9  C   UNL     1      50.320 -35.647  15.956  1.00  0.00     0.093 C 
ENDBRANCH   1   7
BRANCH   5  10
ATOM     10  C   UNL     1      55.318 -33.951  19.481  1.00  0.00     0.001 A 
ATOM     11  C   UNL     1      55.502 -32.663  20.000  1.00  0.00     0.122 A 
ATOM     12  C   UNL     1      55.889 -35.014  20.201  1.00  0.00     0.022 A 
ATOM     13  N   UNL     1      56.183 -32.323  21.126  1.00  0.00    -0.238 NA
ATOM     14  C   UNL     1      56.602 -34.726  21.377  1.00  0.00     0.019 A 
ATOM     15  C   UNL     1      56.699 -33.393  21.756  1.00  0.00     0.137 A 
ATOM     16  C   UNL     1      57.305 -35.483  22.354  1.00  0.00     0.030 A 
ATOM     17  N   UNL     1      57.425 -33.334  22.913  1.00  0.00    -0.346 N 
ATOM     18  C   UNL     1      57.802 -34.599  23.290  1.00  0.00     0.085 A 
ATOM     19  H   UNL     1      57.635 -32.474  23.396  1.00  0.00     0.167 HD
ENDBRANCH   5  10
TORSDOF 2
ENDMDL
MODEL 3
REMARK VINA RESULT:      -9.3      3.307      7.021
REMARK SMILES CC(=O)c1cccc(-c2cnc3[nH]ccc3c2)c1
REMARK SMILES IDX 4 1 5 2 6 3 7 4 8 5 18 6 2 7 3 8 1 9 9 10 10 11 17 12 11 13
REMARK SMILES IDX 16 14 12 15 15 16 13 17 14 18
REMARK H PARENT 13 19
ROOT
ATOM      1  C   UNL     1      50.106 -35.404  12.839  1.00  0.00     0.018 A 
ATOM      2  C   UNL     1      50.847 -34.504  12.066  1.00  0.00     0.012 A 
ATOM      3  C   UNL     1      51.861 -33.751  12.658  1.00  0.00     0.001 A 
ATOM      4  C   UNL     1      52.137 -33.889  14.019  1.00  0.00     0.009 A 
ATOM      5  C   UNL     1      51.408 -34.783  14.821  1.00  0.00    -0.016 A 
ATOM      6  C   UNL     1      50.391 -35.535  14.208  1.00  0.00     0.020 A 
ENDROOT
BRANCH   1   7
ATOM      7  C   UNL     1      49.012 -36.238  12.257  1.00  0.00     0.159 C 
ATOM      8  O   UNL     1      48.350 -36.973  12.985  1.00  0.00    -0.295 OA
ATOM      9  C   UNL     1      48.747 -36.166  10.776  1.00  0.00     0.093 C 
ENDBRANCH   1   7
BRANCH   5  10
ATOM     10  C   UNL     1      51.700 -34.930  16.256  1.00  0.00     0.001 A 
ATOM     11  C   UNL     1      50.739 -35.403  17.159  1.00  0.00     0.122 A 
ATOM     12  C   UNL     1      52.960 -34.600  16.784  1.00  0.00     0.022 A 
ATOM     13  N   UNL     1      50.888 -35.573  18.499  1.00  0.00    -0.238 NA
ATOM     14  C   UNL     1      53.176 -34.758  18.163  1.00  0.00     0.019 A 
ATOM     15  C   UNL     1      52.117 -35.235  18.925  1.00  0.00     0.137 A 
ATOM     16  C   UNL     1      54.261 -34.545  19.056  1.00  0.00     0.030 A 
ATOM     17  N   UNL     1      52.534 -35.314  20.225  1.00  0.00    -0.346 N 
ATOM     18  C   UNL     1      53.838 -34.896  20.322  1.00  0.00     0.085 A 
ATOM     19  H   UNL     1      51.948 -35.636  20.981  1.00  0.00     0.167 HD
ENDBRANCH   5  10
TORSDOF 2
ENDMDL
MODEL 4
REMARK VINA RESULT:      -9.3      3.584      7.227
REMARK SMILES CC(=O)c1cccc(-c2cnc3[nH]ccc3c2)c1
REMARK SMILES IDX 4 1 5 2 6 3 7 4 8 5 18 6 2 7 3 8 1 9 9 10 10 11 17 12 11 13
REMARK SMILES IDX 16 14 12 15 15 16 13 17 14 18
REMARK H PARENT 13 19
ROOT
ATOM      1  C   UNL     1      52.906 -34.755  16.724  1.00  0.00     0.018 A 
ATOM      2  C   UNL     1      51.670 -35.300  17.083  1.00  0.00     0.012 A 
ATOM      3  C   UNL     1      51.379 -35.538  18.426  1.00  0.00     0.001 A 
ATOM      4  C   UNL     1      52.318 -35.236  19.414  1.00  0.00     0.009 A 
ATOM      5  C   UNL     1      53.570 -34.689  19.083  1.00  0.00    -0.016 A 
ATOM      6  C   UNL     1      53.845 -34.455  17.725  1.00  0.00     0.020 A 
ENDROOT
BRANCH   1   7
ATOM      7  C   UNL     1      53.270 -34.476  15.302  1.00  0.00     0.159 C 
ATOM      8  O   UNL     1      54.447 -34.509  14.954  1.00  0.00    -0.295 OA
ATOM      9  C   UNL     1      52.176 -34.152  14.319  1.00  0.00     0.093 C 
ENDBRANCH   1   7
BRANCH   5  10
ATOM     10  C   UNL     1      54.559 -34.369  20.124  1.00  0.00     0.001 A 
ATOM     11  C   UNL     1      54.633 -33.095  20.702  1.00  0.00     0.122 A 
ATOM     12  C   UNL     1      55.475 -35.330  20.584  1.00  0.00     0.022 A 
ATOM     13  N   UNL     1      55.503 -32.680  21.660  1.00  0.00    -0.238 NA
ATOM     14  C   UNL     1      56.397 -34.962  21.578  1.00  0.00     0.019 A 
ATOM     15  C   UNL     1      56.345 -33.655  22.046  1.00  0.00     0.137 A 
ATOM     16  C   UNL     1      57.448 -35.609  22.283  1.00  0.00     0.030 A 
ATOM     17  N   UNL     1      57.317 -33.507  22.997  1.00  0.00    -0.346 N 
ATOM     18  C   UNL     1      57.998 -34.689  23.152  1.00  0.00     0.085 A 
ATOM     19  H   UNL     1      57.484 -32.645  23.494  1.00  0.00     0.167 HD
ENDBRANCH   5  10
TORSDOF 2
ENDMDL
MODEL 5
REMARK VINA RESULT:      -9.2      2.370      3.857
REMARK SMILES CC(=O)c1cccc(-c2cnc3[nH]ccc3c2)c1
REMARK SMILES IDX 4 1 5 2 6 3 7 4 8 5 18 6 2 7 3 8 1 9 9 10 10 11 17 12 11 13
REMARK SMILES IDX 16 14 12 15 15 16 13 17 14 18
REMARK H PARENT 13 19
ROOT
ATOM      1  C   UNL     1      56.393 -32.667  22.558  1.00  0.00     0.018 A 
ATOM      2  C   UNL     1      57.248 -33.688  22.986  1.00  0.00     0.012 A 
ATOM      3  C   UNL     1      57.234 -34.924  22.340  1.00  0.00     0.001 A 
ATOM      4  C   UNL     1      56.368 -35.147  21.269  1.00  0.00     0.009 A 
ATOM      5  C   UNL     1      55.496 -34.141  20.817  1.00  0.00    -0.016 A 
ATOM      6  C   UNL     1      55.525 -32.902  21.479  1.00  0.00     0.020 A 
ENDROOT
BRANCH   1   7
ATOM      7  C   UNL     1      56.369 -31.324  23.211  1.00  0.00     0.159 C 
ATOM      8  O   UNL     1      57.266 -30.516  22.983  1.00  0.00    -0.295 OA
ATOM      9  C   UNL     1      55.238 -30.988  24.147  1.00  0.00     0.093 C 
ENDBRANCH   1   7
BRANCH   5  10
ATOM     10  C   UNL     1      54.584 -34.377  19.686  1.00  0.00     0.001 A 
ATOM     11  C   UNL     1      53.316 -34.943  19.868  1.00  0.00     0.122 A 
ATOM     12  C   UNL     1      54.949 -34.043  18.370  1.00  0.00     0.022 A 
ATOM     13  N   UNL     1      52.395 -35.214  18.907  1.00  0.00    -0.238 NA
ATOM     14  C   UNL     1      54.035 -34.296  17.333  1.00  0.00     0.019 A 
ATOM     15  C   UNL     1      52.818 -34.868  17.679  1.00  0.00     0.137 A 
ATOM     16  C   UNL     1      54.019 -34.115  15.923  1.00  0.00     0.030 A 
ATOM     17  N   UNL     1      52.086 -35.028  16.534  1.00  0.00    -0.346 N 
ATOM     18  C   UNL     1      52.805 -34.575  15.456  1.00  0.00     0.085 A 
ATOM     19  H   UNL     1      51.158 -35.424  16.516  1.00  0.00     0.167 HD
ENDBRANCH   5  10
TORSDOF 2
ENDMDL
MODEL 6
REMARK VINA RESULT:      -9.0      2.237      3.307
REMARK SMILES CC(=O)c1cccc(-c2cnc3[nH]ccc3c2)c1
REMARK SMILES IDX 4 1 5 2 6 3 7 4 8 5 18 6 2 7 3 8 1 9 9 10 10 11 17 12 11 13
REMARK SMILES IDX 16 14 12 15 15 16 13 17 14 18
REMARK H PARENT 13 19
ROOT
ATOM      1  C   UNL     1      54.456 -33.857  17.739  1.00  0.00     0.018 A 
ATOM      2  C   UNL     1      53.914 -34.507  18.853  1.00  0.00     0.012 A 
ATOM      3  C   UNL     1      52.722 -35.221  18.730  1.00  0.00     0.001 A 
ATOM      4  C   UNL     1      52.066 -35.288  17.500  1.00  0.00     0.009 A 
ATOM      5  C   UNL     1      52.586 -34.644  16.363  1.00  0.00    -0.016 A 
ATOM      6  C   UNL     1      53.788 -33.931  16.506  1.00  0.00     0.020 A 
ENDROOT
BRANCH   1   7
ATOM      7  C   UNL     1      55.730 -33.082  17.813  1.00  0.00     0.159 C 
ATOM      8  O   UNL     1      56.516 -33.105  16.869  1.00  0.00    -0.295 OA
ATOM      9  C   UNL     1      56.031 -32.287  19.056  1.00  0.00     0.093 C 
ENDBRANCH   1   7
BRANCH   5  10
ATOM     10  C   UNL     1      51.895 -34.717  15.066  1.00  0.00     0.001 A 
ATOM     11  C   UNL     1      52.388 -34.058  13.931  1.00  0.00     0.122 A 
ATOM     12  C   UNL     1      50.707 -35.451  14.909  1.00  0.00     0.022 A 
ATOM     13  N   UNL     1      51.838 -34.045  12.689  1.00  0.00    -0.238 NA
ATOM     14  C   UNL     1      50.093 -35.479  13.645  1.00  0.00     0.019 A 
ATOM     15  C   UNL     1      50.706 -34.768  12.621  1.00  0.00     0.137 A 
ATOM     16  C   UNL     1      48.929 -36.077  13.091  1.00  0.00     0.030 A 
ATOM     17  N   UNL     1      49.955 -34.925  11.490  1.00  0.00    -0.346 N 
ATOM     18  C   UNL     1      48.868 -35.719  11.760  1.00  0.00     0.085 A 
ATOM     19  H   UNL     1      50.189 -34.507  10.602  1.00  0.00     0.167 HD
ENDBRANCH   5  10
TORSDOF 2
ENDMDL
MODEL 7
REMARK VINA RESULT:      -8.6      1.827      3.528
REMARK SMILES CC(=O)c1cccc(-c2cnc3[nH]ccc3c2)c1
REMARK SMILES IDX 4 1 5 2 6 3 7 4 8 5 18 6 2 7 3 8 1 9 9 10 10 11 17 12 11 13
REMARK SMILES IDX 16 14 12 15 15 16 13 17 14 18
REMARK H PARENT 13 19
ROOT
ATOM      1  C   UNL     1      53.398 -34.646  18.066  1.00  0.00     0.018 A 
ATOM      2  C   UNL     1      52.487 -35.298  18.903  1.00  0.00     0.012 A 
ATOM      3  C   UNL     1      51.256 -35.718  18.399  1.00  0.00     0.001 A 
ATOM      4  C   UNL     1      50.929 -35.487  17.062  1.00  0.00     0.009 A 
ATOM      5  C   UNL     1      51.823 -34.833  16.197  1.00  0.00    -0.016 A 
ATOM      6  C   UNL     1      53.059 -34.419  16.722  1.00  0.00     0.020 A 
ENDROOT
BRANCH   1   7
ATOM      7  C   UNL     1      54.730 -34.178  18.552  1.00  0.00     0.159 C 
ATOM      8  O   UNL     1      55.230 -34.685  19.553  1.00  0.00    -0.295 OA
ATOM      9  C   UNL     1      55.437 -33.080  17.801  1.00  0.00     0.093 C 
ENDBRANCH   1   7
BRANCH   5  10
ATOM     10  C   UNL     1      51.478 -34.592  14.787  1.00  0.00     0.001 A 
ATOM     11  C   UNL     1      50.566 -35.406  14.102  1.00  0.00     0.122 A 
ATOM     12  C   UNL     1      52.051 -33.531  14.064  1.00  0.00     0.022 A 
ATOM     13  N   UNL     1      50.176 -35.288  12.806  1.00  0.00    -0.238 NA
ATOM     14  C   UNL     1      51.683 -33.356  12.719  1.00  0.00     0.019 A 
ATOM     15  C   UNL     1      50.768 -34.253  12.184  1.00  0.00     0.137 A 
ATOM     16  C   UNL     1      52.021 -32.445  11.681  1.00  0.00     0.030 A 
ATOM     17  N   UNL     1      50.551 -33.908  10.879  1.00  0.00    -0.346 N 
ATOM     18  C   UNL     1      51.308 -32.809  10.557  1.00  0.00     0.085 A 
ATOM     19  H   UNL     1      49.922 -34.406  10.267  1.00  0.00     0.167 HD
ENDBRANCH   5  10
TORSDOF 2
ENDMDL
MODEL 8
REMARK VINA RESULT:      -8.4      1.889      2.623
REMARK SMILES CC(=O)c1cccc(-c2cnc3[nH]ccc3c2)c1
REMARK SMILES IDX 4 1 5 2 6 3 7 4 8 5 18 6 2 7 3 8 1 9 9 10 10 11 17 12 11 13
REMARK SMILES IDX 16 14 12 15 15 16 13 17 14 18
REMARK H PARENT 13 19
ROOT
ATOM      1  C   UNL     1      53.718 -34.448  18.551  1.00  0.00     0.018 A 
ATOM      2  C   UNL     1      54.987 -33.895  18.355  1.00  0.00     0.012 A 
ATOM      3  C   UNL     1      55.401 -33.539  17.071  1.00  0.00     0.001 A 
ATOM      4  C   UNL     1      54.553 -33.735  15.980  1.00  0.00     0.009 A 
ATOM      5  C   UNL     1      53.272 -34.290  16.145  1.00  0.00    -0.016 A 
ATOM      6  C   UNL     1      52.872 -34.641  17.446  1.00  0.00     0.020 A 
ENDROOT
BRANCH   1   7
ATOM      7  C   UNL     1      53.223 -34.844  19.903  1.00  0.00     0.159 C 
ATOM      8  O   UNL     1      54.021 -35.023  20.819  1.00  0.00    -0.295 OA
ATOM      9  C   UNL     1      51.742 -35.024  20.114  1.00  0.00     0.093 C 
ENDBRANCH   1   7
BRANCH   5  10
ATOM     10  C   UNL     1      52.378 -34.494  14.995  1.00  0.00     0.001 A 
ATOM     11  C   UNL     1      52.629 -33.899  13.752  1.00  0.00     0.122 A 
ATOM     12  C   UNL     1      51.228 -35.298  15.094  1.00  0.00     0.022 A 
ATOM     13  N   UNL     1      51.877 -34.006  12.626  1.00  0.00    -0.238 NA
ATOM     14  C   UNL     1      50.413 -35.451  13.961  1.00  0.00     0.019 A 
ATOM     15  C   UNL     1      50.797 -34.789  12.802  1.00  0.00     0.137 A 
ATOM     16  C   UNL     1      49.211 -36.147  13.657  1.00  0.00     0.030 A 
ATOM     17  N   UNL     1      49.876 -35.068  11.830  1.00  0.00    -0.346 N 
ATOM     18  C   UNL     1      48.903 -35.893  12.335  1.00  0.00     0.085 A 
ATOM     19  H   UNL     1      49.931 -34.706  10.890  1.00  0.00     0.167 HD
ENDBRANCH   5  10
TORSDOF 2
ENDMDL
MODEL 9
REMARK VINA RESULT:      -8.2      5.672      9.035
REMARK SMILES CC(=O)c1cccc(-c2cnc3[nH]ccc3c2)c1
REMARK SMILES IDX 4 1 5 2 6 3 7 4 8 5 18 6 2 7 3 8 1 9 9 10 10 11 17 12 11 13
REMARK SMILES IDX 16 14 12 15 15 16 13 17 14 18
REMARK H PARENT 13 19
ROOT
ATOM      1  C   UNL     1      55.285 -34.423  21.058  1.00  0.00     0.018 A 
ATOM      2  C   UNL     1      56.279 -35.367  21.334  1.00  0.00     0.012 A 
ATOM      3  C   UNL     1      57.257 -35.088  22.289  1.00  0.00     0.001 A 
ATOM      4  C   UNL     1      57.249 -33.869  22.968  1.00  0.00     0.009 A 
ATOM      5  C   UNL     1      56.264 -32.900  22.710  1.00  0.00    -0.016 A 
ATOM      6  C   UNL     1      55.286 -33.199  21.747  1.00  0.00     0.020 A 
ENDROOT
BRANCH   1   7
ATOM      7  C   UNL     1      54.212 -34.670  20.049  1.00  0.00     0.159 C 
ATOM      8  O   UNL     1      53.142 -35.163  20.401  1.00  0.00    -0.295 OA
ATOM      9  C   UNL     1      54.467 -34.312  18.609  1.00  0.00     0.093 C 
ENDBRANCH   1   7
BRANCH   5  10
ATOM     10  C   UNL     1      56.256 -31.615  23.428  1.00  0.00     0.001 A 
ATOM     11  C   UNL     1      55.104 -31.136  24.066  1.00  0.00     0.122 A 
ATOM     12  C   UNL     1      57.406 -30.810  23.503  1.00  0.00     0.022 A 
ATOM     13  N   UNL     1      54.972 -29.969  24.749  1.00  0.00    -0.238 NA
ATOM     14  C   UNL     1      57.332 -29.593  24.200  1.00  0.00     0.019 A 
ATOM     15  C   UNL     1      56.113 -29.257  24.775  1.00  0.00     0.137 A 
ATOM     16  C   UNL     1      58.232 -28.532  24.495  1.00  0.00     0.030 A 
ATOM     17  N   UNL     1      56.258 -28.048  25.397  1.00  0.00    -0.346 N 
ATOM     18  C   UNL     1      57.542 -27.593  25.235  1.00  0.00     0.085 A 
ATOM     19  H   UNL     1      55.512 -27.584  25.894  1.00  0.00     0.167 HD
ENDBRANCH   5  10
TORSDOF 2
ENDMDL
MODEL 10
REMARK VINA RESULT:      -8.1      1.558      2.252
REMARK SMILES CC(=O)c1cccc(-c2cnc3[nH]ccc3c2)c1
REMARK SMILES IDX 4 1 5 2 6 3 7 4 8 5 18 6 2 7 3 8 1 9 9 10 10 11 17 12 11 13
REMARK SMILES IDX 16 14 12 15 15 16 13 17 14 18
REMARK H PARENT 13 19
ROOT
ATOM      1  C   UNL     1      56.006 -34.804  20.845  1.00  0.00     0.018 A 
ATOM      2  C   UNL     1      56.207 -33.490  21.280  1.00  0.00     0.012 A 
ATOM      3  C   UNL     1      55.673 -32.427  20.552  1.00  0.00     0.001 A 
ATOM      4  C   UNL     1      54.939 -32.670  19.389  1.00  0.00     0.009 A 
ATOM      5  C   UNL     1      54.721 -33.979  18.927  1.00  0.00    -0.016 A 
ATOM      6  C   UNL     1      55.266 -35.038  19.675  1.00  0.00     0.020 A 
ENDROOT
BRANCH   1   7
ATOM      7  C   UNL     1      56.552 -35.980  21.587  1.00  0.00     0.159 C 
ATOM      8  O   UNL     1      56.058 -37.092  21.421  1.00  0.00    -0.295 OA
ATOM      9  C   UNL     1      57.703 -35.774  22.537  1.00  0.00     0.093 C 
ENDBRANCH   1   7
BRANCH   5  10
ATOM     10  C   UNL     1      53.946 -34.235  17.703  1.00  0.00     0.001 A 
ATOM     11  C   UNL     1      54.490 -34.025  16.429  1.00  0.00     0.122 A 
ATOM     12  C   UNL     1      52.621 -34.700  17.759  1.00  0.00     0.022 A 
ATOM     13  N   UNL     1      53.874 -34.217  15.234  1.00  0.00    -0.238 NA
ATOM     14  C   UNL     1      51.932 -34.921  16.554  1.00  0.00     0.019 A 
ATOM     15  C   UNL     1      52.613 -34.660  15.372  1.00  0.00     0.137 A 
ATOM     16  C   UNL     1      50.632 -35.368  16.191  1.00  0.00     0.030 A 
ATOM     17  N   UNL     1      51.771 -34.938  14.330  1.00  0.00    -0.346 N 
ATOM     18  C   UNL     1      50.561 -35.369  14.813  1.00  0.00     0.085 A 
ATOM     19  H   UNL     1      52.029 -34.832  13.361  1.00  0.00     0.167 HD
ENDBRANCH   5  10
TORSDOF 2
ENDMDL
