MODEL 1
REMARK VINA RESULT:      -7.8      0.000      0.000
REMARK SMILES CC(=O)Nc1ccc(SC[C@H]2CCC(=O)NC2=O)cc1
REMARK SMILES IDX 9 1 8 2 5 3 6 4 20 5 7 6 19 7 4 8 2 9 3 10 1 11 10 13 11 14
REMARK SMILES IDX 12 15 17 16 13 17 16 18 18 19 14 20 15 21
REMARK H PARENT 4 12 16 22
ROOT
ATOM      1  S   UNL     1     -45.788  56.574 -96.037  1.00  0.00    -0.125 SA
ENDROOT
BRANCH   1   2
ATOM      2  C   UNL     1     -45.624  57.284 -94.410  1.00  0.00     0.007 A 
ATOM      3  C   UNL     1     -45.287  58.406 -91.842  1.00  0.00     0.041 A 
ATOM      4  C   UNL     1     -46.523  58.464 -92.485  1.00  0.00     0.027 A 
ATOM      5  C   UNL     1     -44.215  57.792 -92.502  1.00  0.00     0.027 A 
ATOM      6  C   UNL     1     -46.690  57.911 -93.762  1.00  0.00     0.017 A 
ATOM      7  C   UNL     1     -44.381  57.239 -93.776  1.00  0.00     0.017 A 
BRANCH   3   8
ATOM      8  N   UNL     1     -45.037  58.936 -90.560  1.00  0.00    -0.326 N 
ATOM      9  C   UNL     1     -44.438  60.143 -90.250  1.00  0.00     0.221 C 
ATOM     10  O   UNL     1     -44.000  60.974 -91.037  1.00  0.00    -0.275 OA
ATOM     11  C   UNL     1     -44.331  60.361 -88.761  1.00  0.00     0.114 C 
ATOM     12  H   UNL     1     -45.329  58.362 -89.779  1.00  0.00     0.169 HD
ENDBRANCH   3   8
ENDBRANCH   1   2
BRANCH   1  13
ATOM     13  C   UNL     1     -46.448  54.924 -95.610  1.00  0.00     0.088 C 
BRANCH  13  14
ATOM     14  C   UNL     1     -45.362  53.985 -95.067  1.00  0.00     0.089 C 
ATOM     15  C   UNL     1     -45.806  52.996 -93.983  1.00  0.00     0.024 C 
ATOM     16  C   UNL     1     -44.810  53.203 -96.243  1.00  0.00     0.230 C 
ATOM     17  C   UNL     1     -46.824  52.001 -94.519  1.00  0.00     0.101 C 
ATOM     18  N   UNL     1     -45.414  52.003 -96.526  1.00  0.00    -0.296 N 
ATOM     19  O   UNL     1     -43.904  53.634 -96.951  1.00  0.00    -0.274 OA
ATOM     20  C   UNL     1     -46.304  51.302 -95.751  1.00  0.00     0.226 C 
ATOM     21  O   UNL     1     -46.680  50.179 -96.077  1.00  0.00    -0.275 OA
ATOM     22  H   UNL     1     -45.046  51.503 -97.325  1.00  0.00     0.172 HD
ENDBRANCH  13  14
ENDBRANCH   1  13
TORSDOF 4
ENDMDL
MODEL 2
REMARK VINA RESULT:      -7.6      1.991      2.164
REMARK SMILES CC(=O)Nc1ccc(SC[C@H]2CCC(=O)NC2=O)cc1
REMARK SMILES IDX 9 1 8 2 5 3 6 4 20 5 7 6 19 7 4 8 2 9 3 10 1 11 10 13 11 14
REMARK SMILES IDX 12 15 17 16 13 17 16 18 18 19 14 20 15 21
REMARK H PARENT 4 12 16 22
ROOT
ATOM      1  S   UNL     1     -45.495  56.797 -96.227  1.00  0.00    -0.125 SA
ENDROOT
BRANCH   1   2
ATOM      2  C   UNL     1     -46.180  57.670 -94.832  1.00  0.00     0.007 A 
ATOM      3  C   UNL     1     -47.206  59.027 -92.580  1.00  0.00     0.041 A 
ATOM      4  C   UNL     1     -47.659  59.336 -93.862  1.00  0.00     0.027 A 
ATOM      5  C   UNL     1     -46.224  58.039 -92.435  1.00  0.00     0.027 A 
ATOM      6  C   UNL     1     -47.147  58.666 -94.981  1.00  0.00     0.017 A 
ATOM      7  C   UNL     1     -45.713  57.370 -93.552  1.00  0.00     0.017 A 
BRANCH   3   8
ATOM      8  N   UNL     1     -47.670  59.652 -91.404  1.00  0.00    -0.326 N 
ATOM      9  C   UNL     1     -48.535  60.727 -91.309  1.00  0.00     0.221 C 
ATOM     10  O   UNL     1     -49.049  61.346 -92.232  1.00  0.00    -0.275 OA
ATOM     11  C   UNL     1     -48.791  61.127 -89.876  1.00  0.00     0.114 C 
ATOM     12  H   UNL     1     -47.327  59.268 -90.534  1.00  0.00     0.169 HD
ENDBRANCH   3   8
ENDBRANCH   1   2
BRANCH   1  13
ATOM     13  C   UNL     1     -46.185  55.128 -95.942  1.00  0.00     0.088 C 
BRANCH  13  14
ATOM     14  C   UNL     1     -45.192  54.202 -95.227  1.00  0.00     0.089 C 
ATOM     15  C   UNL     1     -45.764  53.353 -94.086  1.00  0.00     0.024 C 
ATOM     16  C   UNL     1     -44.601  53.277 -96.272  1.00  0.00     0.230 C 
ATOM     17  C   UNL     1     -46.794  52.356 -94.593  1.00  0.00     0.101 C 
ATOM     18  N   UNL     1     -45.248  52.083 -96.479  1.00  0.00    -0.296 N 
ATOM     19  O   UNL     1     -43.626  53.590 -96.951  1.00  0.00    -0.274 OA
ATOM     20  C   UNL     1     -46.227  51.509 -95.706  1.00  0.00     0.226 C 
ATOM     21  O   UNL     1     -46.639  50.377 -95.945  1.00  0.00    -0.275 OA
ATOM     22  H   UNL     1     -44.852  51.487 -97.193  1.00  0.00     0.172 HD
ENDBRANCH  13  14
ENDBRANCH   1  13
TORSDOF 4
ENDMDL
MODEL 3
REMARK VINA RESULT:      -7.4      1.943      7.273
REMARK SMILES CC(=O)Nc1ccc(SC[C@H]2CCC(=O)NC2=O)cc1
REMARK SMILES IDX 9 1 8 2 5 3 6 4 20 5 7 6 19 7 4 8 2 9 3 10 1 11 10 13 11 14
REMARK SMILES IDX 12 15 17 16 13 17 16 18 18 19 14 20 15 21
REMARK H PARENT 4 12 16 22
ROOT
ATOM      1  S   UNL     1     -45.984  59.198 -95.106  1.00  0.00    -0.125 SA
ENDROOT
BRANCH   1   2
ATOM      2  C   UNL     1     -45.905  57.456 -95.476  1.00  0.00     0.007 A 
ATOM      3  C   UNL     1     -45.839  54.686 -96.013  1.00  0.00     0.041 A 
ATOM      4  C   UNL     1     -45.179  55.586 -96.848  1.00  0.00     0.027 A 
ATOM      5  C   UNL     1     -46.545  55.185 -94.911  1.00  0.00     0.027 A 
ATOM      6  C   UNL     1     -45.215  56.962 -96.585  1.00  0.00     0.017 A 
ATOM      7  C   UNL     1     -46.581  56.559 -94.647  1.00  0.00     0.017 A 
BRANCH   3   8
ATOM      8  N   UNL     1     -45.851  53.290 -96.206  1.00  0.00    -0.326 N 
ATOM      9  C   UNL     1     -46.365  52.326 -95.358  1.00  0.00     0.221 C 
ATOM     10  O   UNL     1     -46.896  52.509 -94.269  1.00  0.00    -0.275 OA
ATOM     11  C   UNL     1     -46.181  50.931 -95.901  1.00  0.00     0.114 C 
ATOM     12  H   UNL     1     -45.432  52.959 -97.066  1.00  0.00     0.169 HD
ENDBRANCH   3   8
ENDBRANCH   1   2
BRANCH   1  13
ATOM     13  C   UNL     1     -45.694  59.165 -93.301  1.00  0.00     0.088 C 
BRANCH  13  14
ATOM     14  C   UNL     1     -44.202  59.088 -92.953  1.00  0.00     0.089 C 
ATOM     15  C   UNL     1     -43.653  60.226 -92.085  1.00  0.00     0.024 C 
ATOM     16  C   UNL     1     -43.970  57.773 -92.235  1.00  0.00     0.230 C 
ATOM     17  C   UNL     1     -44.285  60.228 -90.702  1.00  0.00     0.101 C 
ATOM     18  N   UNL     1     -44.077  57.789 -90.866  1.00  0.00    -0.296 N 
ATOM     19  O   UNL     1     -43.753  56.725 -92.838  1.00  0.00    -0.274 OA
ATOM     20  C   UNL     1     -44.140  58.881 -90.037  1.00  0.00     0.226 C 
ATOM     21  O   UNL     1     -44.117  58.751 -88.816  1.00  0.00    -0.275 OA
ATOM     22  H   UNL     1     -43.939  56.900 -90.404  1.00  0.00     0.172 HD
ENDBRANCH  13  14
ENDBRANCH   1  13
TORSDOF 4
ENDMDL
MODEL 4
REMARK VINA RESULT:      -7.3      4.304      5.869
REMARK SMILES CC(=O)Nc1ccc(SC[C@H]2CCC(=O)NC2=O)cc1
REMARK SMILES IDX 9 1 8 2 5 3 6 4 20 5 7 6 19 7 4 8 2 9 3 10 1 11 10 13 11 14
REMARK SMILES IDX 12 15 17 16 13 17 16 18 18 19 14 20 15 21
REMARK H PARENT 4 12 16 22
ROOT
ATOM      1  S   UNL     1     -46.090  56.789 -95.006  1.00  0.00    -0.125 SA
ENDROOT
BRANCH   1   2
ATOM      2  C   UNL     1     -46.061  57.728 -96.521  1.00  0.00     0.007 A 
ATOM      3  C   UNL     1     -46.040  59.278 -98.880  1.00  0.00     0.041 A 
ATOM      4  C   UNL     1     -45.387  58.047 -98.834  1.00  0.00     0.027 A 
ATOM      5  C   UNL     1     -46.694  59.735 -97.729  1.00  0.00     0.027 A 
ATOM      6  C   UNL     1     -45.393  57.279 -97.662  1.00  0.00     0.017 A 
ATOM      7  C   UNL     1     -46.702  58.968 -96.559  1.00  0.00     0.017 A 
BRANCH   3   8
ATOM      8  N   UNL     1     -46.081  60.109-100.018  1.00  0.00    -0.326 N 
ATOM      9  C   UNL     1     -47.028  60.108-101.027  1.00  0.00     0.221 C 
ATOM     10  O   UNL     1     -48.002  59.372-101.124  1.00  0.00    -0.275 OA
ATOM     11  C   UNL     1     -46.730  61.137-102.089  1.00  0.00     0.114 C 
ATOM     12  H   UNL     1     -45.329  60.781-100.104  1.00  0.00     0.169 HD
ENDBRANCH   3   8
ENDBRANCH   1   2
BRANCH   1  13
ATOM     13  C   UNL     1     -46.284  55.097 -95.672  1.00  0.00     0.088 C 
BRANCH  13  14
ATOM     14  C   UNL     1     -45.218  54.134 -95.134  1.00  0.00     0.089 C 
ATOM     15  C   UNL     1     -45.672  53.179 -94.023  1.00  0.00     0.024 C 
ATOM     16  C   UNL     1     -44.715  53.314 -96.305  1.00  0.00     0.230 C 
ATOM     17  C   UNL     1     -46.731  52.208 -94.520  1.00  0.00     0.101 C 
ATOM     18  N   UNL     1     -45.362  52.129 -96.555  1.00  0.00    -0.296 N 
ATOM     19  O   UNL     1     -43.809  53.703 -97.039  1.00  0.00    -0.274 OA
ATOM     20  C   UNL     1     -46.259  51.471 -95.750  1.00  0.00     0.226 C 
ATOM     21  O   UNL     1     -46.677  50.356 -96.048  1.00  0.00    -0.275 OA
ATOM     22  H   UNL     1     -45.027  51.604 -97.351  1.00  0.00     0.172 HD
ENDBRANCH  13  14
ENDBRANCH   1  13
TORSDOF 4
ENDMDL
MODEL 5
REMARK VINA RESULT:      -7.0      2.284      7.974
REMARK SMILES CC(=O)Nc1ccc(SC[C@H]2CCC(=O)NC2=O)cc1
REMARK SMILES IDX 9 1 8 2 5 3 6 4 20 5 7 6 19 7 4 8 2 9 3 10 1 11 10 13 11 14
REMARK SMILES IDX 12 15 17 16 13 17 16 18 18 19 14 20 15 21
REMARK H PARENT 4 12 16 22
ROOT
ATOM      1  S   UNL     1     -45.338  59.128 -92.771  1.00  0.00    -0.125 SA
ENDROOT
BRANCH   1   2
ATOM      2  C   UNL     1     -45.443  57.555 -93.603  1.00  0.00     0.007 A 
ATOM      3  C   UNL     1     -45.551  55.037 -94.874  1.00  0.00     0.041 A 
ATOM      4  C   UNL     1     -46.584  55.960 -95.038  1.00  0.00     0.027 A 
ATOM      5  C   UNL     1     -44.467  55.381 -94.057  1.00  0.00     0.027 A 
ATOM      6  C   UNL     1     -46.533  57.208 -94.403  1.00  0.00     0.017 A 
ATOM      7  C   UNL     1     -44.415  56.627 -93.424  1.00  0.00     0.017 A 
BRANCH   3   8
ATOM      8  N   UNL     1     -45.526  53.763 -95.477  1.00  0.00    -0.326 N 
ATOM      9  C   UNL     1     -46.308  52.667 -95.161  1.00  0.00     0.221 C 
ATOM     10  O   UNL     1     -47.163  52.597 -94.287  1.00  0.00    -0.275 OA
ATOM     11  C   UNL     1     -45.984  51.469 -96.020  1.00  0.00     0.114 C 
ATOM     12  H   UNL     1     -44.855  53.641 -96.224  1.00  0.00     0.169 HD
ENDBRANCH   3   8
ENDBRANCH   1   2
BRANCH   1  13
ATOM     13  C   UNL     1     -44.171  58.712 -91.427  1.00  0.00     0.088 C 
BRANCH  13  14
ATOM     14  C   UNL     1     -43.386  59.936 -90.938  1.00  0.00     0.089 C 
ATOM     15  C   UNL     1     -43.916  60.615 -89.669  1.00  0.00     0.024 C 
ATOM     16  C   UNL     1     -41.958  59.490 -90.691  1.00  0.00     0.230 C 
ATOM     17  C   UNL     1     -43.820  59.694 -88.463  1.00  0.00     0.101 C 
ATOM     18  N   UNL     1     -41.658  59.050 -89.425  1.00  0.00    -0.296 N 
ATOM     19  O   UNL     1     -41.114  59.464 -91.583  1.00  0.00    -0.274 OA
ATOM     20  C   UNL     1     -42.415  59.173 -88.287  1.00  0.00     0.226 C 
ATOM     21  O   UNL     1     -41.972  58.835 -87.193  1.00  0.00    -0.275 OA
ATOM     22  H   UNL     1     -40.706  58.738 -89.283  1.00  0.00     0.172 HD
ENDBRANCH  13  14
ENDBRANCH   1  13
TORSDOF 4
ENDMDL
MODEL 6
REMARK VINA RESULT:      -6.8      2.350      7.545
REMARK SMILES CC(=O)Nc1ccc(SC[C@H]2CCC(=O)NC2=O)cc1
REMARK SMILES IDX 9 1 8 2 5 3 6 4 20 5 7 6 19 7 4 8 2 9 3 10 1 11 10 13 11 14
REMARK SMILES IDX 12 15 17 16 13 17 16 18 18 19 14 20 15 21
REMARK H PARENT 4 12 16 22
ROOT
ATOM      1  S   UNL     1     -44.213  59.582 -94.330  1.00  0.00    -0.125 SA
ENDROOT
BRANCH   1   2
ATOM      2  C   UNL     1     -44.746  57.915 -94.666  1.00  0.00     0.007 A 
ATOM      3  C   UNL     1     -45.566  55.253 -95.125  1.00  0.00     0.041 A 
ATOM      4  C   UNL     1     -45.998  56.283 -95.960  1.00  0.00     0.027 A 
ATOM      5  C   UNL     1     -44.729  55.568 -94.048  1.00  0.00     0.027 A 
ATOM      6  C   UNL     1     -45.595  57.605 -95.730  1.00  0.00     0.017 A 
ATOM      7  C   UNL     1     -44.325  56.888 -93.818  1.00  0.00     0.017 A 
BRANCH   3   8
ATOM      8  N   UNL     1     -45.924  53.899 -95.289  1.00  0.00    -0.326 N 
ATOM      9  C   UNL     1     -45.299  52.954 -96.082  1.00  0.00     0.221 C 
ATOM     10  O   UNL     1     -44.322  53.122 -96.801  1.00  0.00    -0.275 OA
ATOM     11  C   UNL     1     -45.981  51.609 -96.009  1.00  0.00     0.114 C 
ATOM     12  H   UNL     1     -46.733  53.589 -94.766  1.00  0.00     0.169 HD
ENDBRANCH   3   8
ENDBRANCH   1   2
BRANCH   1  13
ATOM     13  C   UNL     1     -45.572  60.149 -93.247  1.00  0.00     0.088 C 
BRANCH  13  14
ATOM     14  C   UNL     1     -45.649  59.348 -91.941  1.00  0.00     0.089 C 
ATOM     15  C   UNL     1     -45.377  60.132 -90.652  1.00  0.00     0.024 C 
ATOM     16  C   UNL     1     -47.037  58.745 -91.859  1.00  0.00     0.230 C 
ATOM     17  C   UNL     1     -46.435  61.198 -90.414  1.00  0.00     0.101 C 
ATOM     18  N   UNL     1     -47.998  59.487 -91.218  1.00  0.00    -0.296 N 
ATOM     19  O   UNL     1     -47.319  57.671 -92.386  1.00  0.00    -0.274 OA
ATOM     20  C   UNL     1     -47.822  60.602 -90.438  1.00  0.00     0.226 C 
ATOM     21  O   UNL     1     -48.762  61.103 -89.827  1.00  0.00    -0.275 OA
ATOM     22  H   UNL     1     -48.923  59.079 -91.190  1.00  0.00     0.172 HD
ENDBRANCH  13  14
ENDBRANCH   1  13
TORSDOF 4
ENDMDL
MODEL 7
REMARK VINA RESULT:      -6.8      2.508      3.111
REMARK SMILES CC(=O)Nc1ccc(SC[C@H]2CCC(=O)NC2=O)cc1
REMARK SMILES IDX 9 1 8 2 5 3 6 4 20 5 7 6 19 7 4 8 2 9 3 10 1 11 10 13 11 14
REMARK SMILES IDX 12 15 17 16 13 17 16 18 18 19 14 20 15 21
REMARK H PARENT 4 12 16 22
ROOT
ATOM      1  S   UNL     1     -43.990  58.264 -95.275  1.00  0.00    -0.125 SA
ENDROOT
BRANCH   1   2
ATOM      2  C   UNL     1     -45.160  58.768 -94.028  1.00  0.00     0.007 A 
ATOM      3  C   UNL     1     -47.064  59.584 -92.111  1.00  0.00     0.041 A 
ATOM      4  C   UNL     1     -45.970  58.804 -91.737  1.00  0.00     0.027 A 
ATOM      5  C   UNL     1     -47.204  59.943 -93.457  1.00  0.00     0.027 A 
ATOM      6  C   UNL     1     -45.027  58.394 -92.689  1.00  0.00     0.017 A 
ATOM      7  C   UNL     1     -46.263  59.535 -94.408  1.00  0.00     0.017 A 
BRANCH   3   8
ATOM      8  N   UNL     1     -48.055  60.037 -91.216  1.00  0.00    -0.326 N 
ATOM      9  C   UNL     1     -48.022  61.175 -90.430  1.00  0.00     0.221 C 
ATOM     10  O   UNL     1     -47.115  61.996 -90.358  1.00  0.00    -0.275 OA
ATOM     11  C   UNL     1     -49.264  61.322 -89.587  1.00  0.00     0.114 C 
ATOM     12  H   UNL     1     -48.882  59.459 -91.141  1.00  0.00     0.169 HD
ENDBRANCH   3   8
ENDBRANCH   1   2
BRANCH   1  13
ATOM     13  C   UNL     1     -44.281  56.460 -95.289  1.00  0.00     0.088 C 
BRANCH  13  14
ATOM     14  C   UNL     1     -45.522  56.077 -96.107  1.00  0.00     0.089 C 
ATOM     15  C   UNL     1     -45.283  55.141 -97.297  1.00  0.00     0.024 C 
ATOM     16  C   UNL     1     -46.504  55.417 -95.159  1.00  0.00     0.230 C 
ATOM     17  C   UNL     1     -44.788  53.776 -96.844  1.00  0.00     0.101 C 
ATOM     18  N   UNL     1     -46.420  54.052 -95.033  1.00  0.00    -0.296 N 
ATOM     19  O   UNL     1     -47.303  56.063 -94.486  1.00  0.00    -0.274 OA
ATOM     20  C   UNL     1     -45.720  53.173 -95.821  1.00  0.00     0.226 C 
ATOM     21  O   UNL     1     -45.826  51.960 -95.665  1.00  0.00    -0.275 OA
ATOM     22  H   UNL     1     -47.069  53.630 -94.382  1.00  0.00     0.172 HD
ENDBRANCH  13  14
ENDBRANCH   1  13
TORSDOF 4
ENDMDL
MODEL 8
REMARK VINA RESULT:      -6.7      2.110      2.818
REMARK SMILES CC(=O)Nc1ccc(SC[C@H]2CCC(=O)NC2=O)cc1
REMARK SMILES IDX 9 1 8 2 5 3 6 4 20 5 7 6 19 7 4 8 2 9 3 10 1 11 10 13 11 14
REMARK SMILES IDX 12 15 17 16 13 17 16 18 18 19 14 20 15 21
REMARK H PARENT 4 12 16 22
ROOT
ATOM      1  S   UNL     1     -44.154  58.479 -95.359  1.00  0.00    -0.125 SA
ENDROOT
BRANCH   1   2
ATOM      2  C   UNL     1     -44.181  58.705 -93.591  1.00  0.00     0.007 A 
ATOM      3  C   UNL     1     -44.229  59.141 -90.802  1.00  0.00     0.041 A 
ATOM      4  C   UNL     1     -44.480  57.873 -91.327  1.00  0.00     0.027 A 
ATOM      5  C   UNL     1     -43.965  60.193 -91.687  1.00  0.00     0.027 A 
ATOM      6  C   UNL     1     -44.462  57.657 -92.712  1.00  0.00     0.017 A 
ATOM      7  C   UNL     1     -43.945  59.978 -93.069  1.00  0.00     0.017 A 
BRANCH   3   8
ATOM      8  N   UNL     1     -44.228  59.440 -89.425  1.00  0.00    -0.326 N 
ATOM      9  C   UNL     1     -43.155  59.389 -88.553  1.00  0.00     0.221 C 
ATOM     10  O   UNL     1     -42.004  59.060 -88.817  1.00  0.00    -0.275 OA
ATOM     11  C   UNL     1     -43.545  59.769 -87.146  1.00  0.00     0.114 C 
ATOM     12  H   UNL     1     -45.116  59.723 -89.032  1.00  0.00     0.169 HD
ENDBRANCH   3   8
ENDBRANCH   1   2
BRANCH   1  13
ATOM     13  C   UNL     1     -44.274  56.658 -95.459  1.00  0.00     0.088 C 
BRANCH  13  14
ATOM     14  C   UNL     1     -45.530  56.198 -96.212  1.00  0.00     0.089 C 
ATOM     15  C   UNL     1     -45.301  55.214 -97.366  1.00  0.00     0.024 C 
ATOM     16  C   UNL     1     -46.456  55.554 -95.200  1.00  0.00     0.230 C 
ATOM     17  C   UNL     1     -44.746  53.889 -96.868  1.00  0.00     0.101 C 
ATOM     18  N   UNL     1     -46.323  54.200 -95.014  1.00  0.00    -0.296 N 
ATOM     19  O   UNL     1     -47.252  56.206 -94.529  1.00  0.00    -0.274 OA
ATOM     20  C   UNL     1     -45.622  53.306 -95.785  1.00  0.00     0.226 C 
ATOM     21  O   UNL     1     -45.683  52.099 -95.569  1.00  0.00    -0.275 OA
ATOM     22  H   UNL     1     -46.935  53.789 -94.321  1.00  0.00     0.172 HD
ENDBRANCH  13  14
ENDBRANCH   1  13
TORSDOF 4
ENDMDL
MODEL 9
REMARK VINA RESULT:      -6.6      1.841      7.448
REMARK SMILES CC(=O)Nc1ccc(SC[C@H]2CCC(=O)NC2=O)cc1
REMARK SMILES IDX 9 1 8 2 5 3 6 4 20 5 7 6 19 7 4 8 2 9 3 10 1 11 10 13 11 14
REMARK SMILES IDX 12 15 17 16 13 17 16 18 18 19 14 20 15 21
REMARK H PARENT 4 12 16 22
ROOT
ATOM      1  S   UNL     1     -44.623  58.877 -95.915  1.00  0.00    -0.125 SA
ENDROOT
BRANCH   1   2
ATOM      2  C   UNL     1     -44.907  57.117 -95.896  1.00  0.00     0.007 A 
ATOM      3  C   UNL     1     -45.355  54.331 -95.944  1.00  0.00     0.041 A 
ATOM      4  C   UNL     1     -44.940  54.963 -94.773  1.00  0.00     0.027 A 
ATOM      5  C   UNL     1     -45.532  55.105 -97.098  1.00  0.00     0.027 A 
ATOM      6  C   UNL     1     -44.712  56.345 -94.749  1.00  0.00     0.017 A 
ATOM      7  C   UNL     1     -45.307  56.485 -97.075  1.00  0.00     0.017 A 
BRANCH   3   8
ATOM      8  N   UNL     1     -45.605  52.948 -96.051  1.00  0.00    -0.326 N 
ATOM      9  C   UNL     1     -46.427  52.177 -95.249  1.00  0.00     0.221 C 
ATOM     10  O   UNL     1     -47.083  52.555 -94.285  1.00  0.00    -0.275 OA
ATOM     11  C   UNL     1     -46.433  50.727 -95.664  1.00  0.00     0.114 C 
ATOM     12  H   UNL     1     -45.125  52.467 -96.801  1.00  0.00     0.169 HD
ENDBRANCH   3   8
ENDBRANCH   1   2
BRANCH   1  13
ATOM     13  C   UNL     1     -43.887  59.109 -94.257  1.00  0.00     0.088 C 
BRANCH  13  14
ATOM     14  C   UNL     1     -44.785  59.939 -93.332  1.00  0.00     0.089 C 
ATOM     15  C   UNL     1     -45.908  59.176 -92.619  1.00  0.00     0.024 C 
ATOM     16  C   UNL     1     -43.893  60.579 -92.287  1.00  0.00     0.230 C 
ATOM     17  C   UNL     1     -45.353  58.142 -91.652  1.00  0.00     0.101 C 
ATOM     18  N   UNL     1     -43.698  59.875 -91.125  1.00  0.00    -0.296 N 
ATOM     19  O   UNL     1     -43.318  61.649 -92.479  1.00  0.00    -0.274 OA
ATOM     20  C   UNL     1     -44.384  58.773 -90.680  1.00  0.00     0.226 C 
ATOM     21  O   UNL     1     -44.181  58.309 -89.562  1.00  0.00    -0.275 OA
ATOM     22  H   UNL     1     -43.084  60.307 -90.447  1.00  0.00     0.172 HD
ENDBRANCH  13  14
ENDBRANCH   1  13
TORSDOF 4
ENDMDL
MODEL 10
REMARK VINA RESULT:      -6.5      2.042      2.572
REMARK SMILES CC(=O)Nc1ccc(SC[C@H]2CCC(=O)NC2=O)cc1
REMARK SMILES IDX 9 1 8 2 5 3 6 4 20 5 7 6 19 7 4 8 2 9 3 10 1 11 10 13 11 14
REMARK SMILES IDX 12 15 17 16 13 17 16 18 18 19 14 20 15 21
REMARK H PARENT 4 12 16 22
ROOT
ATOM      1  S   UNL     1     -46.765  58.631 -94.476  1.00  0.00    -0.125 SA
ENDROOT
BRANCH   1   2
ATOM      2  C   UNL     1     -45.496  58.781 -93.234  1.00  0.00     0.007 A 
ATOM      3  C   UNL     1     -43.514  58.953 -91.232  1.00  0.00     0.041 A 
ATOM      4  C   UNL     1     -43.391  59.678 -92.416  1.00  0.00     0.027 A 
ATOM      5  C   UNL     1     -44.633  58.129 -91.062  1.00  0.00     0.027 A 
ATOM      6  C   UNL     1     -44.372  59.590 -93.413  1.00  0.00     0.017 A 
ATOM      7  C   UNL     1     -45.614  58.041 -92.056  1.00  0.00     0.017 A 
BRANCH   3   8
ATOM      8  N   UNL     1     -42.574  58.988 -90.182  1.00  0.00    -0.326 N 
ATOM      9  C   UNL     1     -42.720  59.580 -88.940  1.00  0.00     0.221 C 
ATOM     10  O   UNL     1     -43.694  60.197 -88.527  1.00  0.00    -0.275 OA
ATOM     11  C   UNL     1     -41.488  59.420 -88.084  1.00  0.00     0.114 C 
ATOM     12  H   UNL     1     -41.691  58.527 -90.362  1.00  0.00     0.169 HD
ENDBRANCH   3   8
ENDBRANCH   1   2
BRANCH   1  13
ATOM     13  C   UNL     1     -46.692  56.835 -94.806  1.00  0.00     0.088 C 
BRANCH  13  14
ATOM     14  C   UNL     1     -45.283  56.372 -95.200  1.00  0.00     0.089 C 
ATOM     15  C   UNL     1     -44.728  55.169 -94.429  1.00  0.00     0.024 C 
ATOM     16  C   UNL     1     -45.313  56.031 -96.677  1.00  0.00     0.230 C 
ATOM     17  C   UNL     1     -45.543  53.912 -94.694  1.00  0.00     0.101 C 
ATOM     18  N   UNL     1     -45.608  54.731 -97.005  1.00  0.00    -0.296 N 
ATOM     19  O   UNL     1     -45.142  56.878 -97.550  1.00  0.00    -0.274 OA
ATOM     20  C   UNL     1     -45.654  53.640 -96.174  1.00  0.00     0.226 C 
ATOM     21  O   UNL     1     -45.818  52.508 -96.623  1.00  0.00    -0.275 OA
ATOM     22  H   UNL     1     -45.643  54.525 -97.995  1.00  0.00     0.172 HD
ENDBRANCH  13  14
ENDBRANCH   1  13
TORSDOF 4
ENDMDL
