MODEL 1
REMARK VINA RESULT:      -8.3      0.000      0.000
REMARK SMILES CC(=O)Nc1ccccc1SC[C@@H]1CCC(=O)NC1=O
REMARK SMILES IDX 11 1 10 2 5 3 6 4 7 5 9 6 8 7 4 8 2 9 3 10 1 11 12 13 13 14
REMARK SMILES IDX 14 15 19 16 15 17 18 18 20 19 16 20 17 21
REMARK H PARENT 4 12 18 22
ROOT
ATOM      1  S   UNL     1     -46.153  56.733 -94.684  1.00  0.00    -0.123 SA
ENDROOT
BRANCH   1   2
ATOM      2  C   UNL     1     -45.538  57.924 -95.879  1.00  0.00     0.031 A 
ATOM      3  C   UNL     1     -45.191  59.247 -95.523  1.00  0.00     0.054 A 
ATOM      4  C   UNL     1     -44.725  60.106 -96.525  1.00  0.00     0.027 A 
ATOM      5  C   UNL     1     -44.609  59.669 -97.848  1.00  0.00     0.002 A 
ATOM      6  C   UNL     1     -45.429  57.498 -97.210  1.00  0.00     0.017 A 
ATOM      7  C   UNL     1     -44.962  58.369 -98.192  1.00  0.00     0.001 A 
BRANCH   3   8
ATOM      8  N   UNL     1     -45.337  59.652 -94.172  1.00  0.00    -0.325 N 
ATOM      9  C   UNL     1     -44.389  59.620 -93.167  1.00  0.00     0.221 C 
ATOM     10  O   UNL     1     -43.248  59.178 -93.244  1.00  0.00    -0.275 OA
ATOM     11  C   UNL     1     -44.904  60.185 -91.868  1.00  0.00     0.114 C 
ATOM     12  H   UNL     1     -46.264  59.985 -93.911  1.00  0.00     0.169 HD
ENDBRANCH   3   8
ENDBRANCH   1   2
BRANCH   1  13
ATOM     13  C   UNL     1     -45.072  55.317 -95.114  1.00  0.00     0.088 C 
BRANCH  13  14
ATOM     14  C   UNL     1     -45.842  54.023 -95.405  1.00  0.00     0.089 C 
ATOM     15  C   UNL     1     -46.055  53.133 -94.179  1.00  0.00     0.024 C 
ATOM     16  C   UNL     1     -45.187  53.220 -96.519  1.00  0.00     0.230 C 
ATOM     17  C   UNL     1     -46.919  51.941 -94.566  1.00  0.00     0.101 C 
ATOM     18  N   UNL     1     -45.591  51.911 -96.629  1.00  0.00    -0.296 N 
ATOM     19  O   UNL     1     -44.379  53.697 -97.313  1.00  0.00    -0.274 OA
ATOM     20  C   UNL     1     -46.314  51.179 -95.719  1.00  0.00     0.226 C 
ATOM     21  O   UNL     1     -46.487  49.974 -95.875  1.00  0.00    -0.275 OA
ATOM     22  H   UNL     1     -45.163  51.376 -97.372  1.00  0.00     0.172 HD
ENDBRANCH  13  14
ENDBRANCH   1  13
TORSDOF 4
ENDMDL
MODEL 2
REMARK VINA RESULT:      -8.3      1.962      2.263
REMARK SMILES CC(=O)Nc1ccccc1SC[C@@H]1CCC(=O)NC1=O
REMARK SMILES IDX 11 1 10 2 5 3 6 4 7 5 9 6 8 7 4 8 2 9 3 10 1 11 12 13 13 14
REMARK SMILES IDX 14 15 19 16 15 17 18 18 20 19 16 20 17 21
REMARK H PARENT 4 12 18 22
ROOT
ATOM      1  S   UNL     1     -44.769  56.348 -93.839  1.00  0.00    -0.123 SA
ENDROOT
BRANCH   1   2
ATOM      2  C   UNL     1     -45.881  57.757 -93.833  1.00  0.00     0.031 A 
ATOM      3  C   UNL     1     -45.749  58.825 -92.917  1.00  0.00     0.054 A 
ATOM      4  C   UNL     1     -46.667  59.880 -92.986  1.00  0.00     0.027 A 
ATOM      5  C   UNL     1     -47.694  59.876 -93.935  1.00  0.00     0.002 A 
ATOM      6  C   UNL     1     -46.921  57.757 -94.773  1.00  0.00     0.017 A 
ATOM      7  C   UNL     1     -47.824  58.817 -94.826  1.00  0.00     0.001 A 
BRANCH   3   8
ATOM      8  N   UNL     1     -44.700  58.782 -91.964  1.00  0.00    -0.325 N 
ATOM      9  C   UNL     1     -43.420  59.286 -92.084  1.00  0.00     0.221 C 
ATOM     10  O   UNL     1     -42.929  59.823 -93.071  1.00  0.00    -0.275 OA
ATOM     11  C   UNL     1     -42.602  59.093 -90.832  1.00  0.00     0.114 C 
ATOM     12  H   UNL     1     -44.919  58.298 -91.094  1.00  0.00     0.169 HD
ENDBRANCH   3   8
ENDBRANCH   1   2
BRANCH   1  13
ATOM     13  C   UNL     1     -45.020  55.797 -95.569  1.00  0.00     0.088 C 
BRANCH  13  14
ATOM     14  C   UNL     1     -45.775  54.466 -95.686  1.00  0.00     0.089 C 
ATOM     15  C   UNL     1     -45.806  53.649 -94.393  1.00  0.00     0.024 C 
ATOM     16  C   UNL     1     -45.233  53.614 -96.823  1.00  0.00     0.230 C 
ATOM     17  C   UNL     1     -46.670  52.413 -94.600  1.00  0.00     0.101 C 
ATOM     18  N   UNL     1     -45.602  52.290 -96.806  1.00  0.00    -0.296 N 
ATOM     19  O   UNL     1     -44.546  54.062 -97.738  1.00  0.00    -0.274 OA
ATOM     20  C   UNL     1     -46.184  51.597 -95.773  1.00  0.00     0.226 C 
ATOM     21  O   UNL     1     -46.333  50.380 -95.835  1.00  0.00    -0.275 OA
ATOM     22  H   UNL     1     -45.251  51.721 -97.564  1.00  0.00     0.172 HD
ENDBRANCH  13  14
ENDBRANCH   1  13
TORSDOF 4
ENDMDL
MODEL 3
REMARK VINA RESULT:      -8.1      2.239      3.234
REMARK SMILES CC(=O)Nc1ccccc1SC[C@@H]1CCC(=O)NC1=O
REMARK SMILES IDX 11 1 10 2 5 3 6 4 7 5 9 6 8 7 4 8 2 9 3 10 1 11 12 13 13 14
REMARK SMILES IDX 14 15 19 16 15 17 18 18 20 19 16 20 17 21
REMARK H PARENT 4 12 18 22
ROOT
ATOM      1  S   UNL     1     -46.088  57.089 -95.411  1.00  0.00    -0.123 SA
ENDROOT
BRANCH   1   2
ATOM      2  C   UNL     1     -45.679  57.716 -93.780  1.00  0.00     0.031 A 
ATOM      3  C   UNL     1     -46.483  58.664 -93.106  1.00  0.00     0.054 A 
ATOM      4  C   UNL     1     -46.081  59.098 -91.838  1.00  0.00     0.027 A 
ATOM      5  C   UNL     1     -44.908  58.611 -91.251  1.00  0.00     0.002 A 
ATOM      6  C   UNL     1     -44.500  57.242 -93.187  1.00  0.00     0.017 A 
ATOM      7  C   UNL     1     -44.118  57.686 -91.923  1.00  0.00     0.001 A 
BRANCH   3   8
ATOM      8  N   UNL     1     -47.655  59.141 -93.745  1.00  0.00    -0.325 N 
ATOM      9  C   UNL     1     -47.774  60.202 -94.622  1.00  0.00     0.221 C 
ATOM     10  O   UNL     1     -46.886  60.971 -94.973  1.00  0.00    -0.275 OA
ATOM     11  C   UNL     1     -49.181  60.374 -95.136  1.00  0.00     0.114 C 
ATOM     12  H   UNL     1     -48.516  58.651 -93.505  1.00  0.00     0.169 HD
ENDBRANCH   3   8
ENDBRANCH   1   2
BRANCH   1  13
ATOM     13  C   UNL     1     -45.016  55.603 -95.420  1.00  0.00     0.088 C 
BRANCH  13  14
ATOM     14  C   UNL     1     -45.788  54.290 -95.598  1.00  0.00     0.089 C 
ATOM     15  C   UNL     1     -45.927  53.467 -94.316  1.00  0.00     0.024 C 
ATOM     16  C   UNL     1     -45.187  53.432 -96.701  1.00  0.00     0.230 C 
ATOM     17  C   UNL     1     -46.800  52.250 -94.590  1.00  0.00     0.101 C 
ATOM     18  N   UNL     1     -45.584  52.116 -96.717  1.00  0.00    -0.296 N 
ATOM     19  O   UNL     1     -44.428  53.870 -97.562  1.00  0.00    -0.274 OA
ATOM     20  C   UNL     1     -46.251  51.430 -95.732  1.00  0.00     0.226 C 
ATOM     21  O   UNL     1     -46.421  50.217 -95.812  1.00  0.00    -0.275 OA
ATOM     22  H   UNL     1     -45.193  51.544 -97.453  1.00  0.00     0.172 HD
ENDBRANCH  13  14
ENDBRANCH   1  13
TORSDOF 4
ENDMDL
MODEL 4
REMARK VINA RESULT:      -8.0      1.361      2.958
REMARK SMILES CC(=O)Nc1ccccc1SC[C@@H]1CCC(=O)NC1=O
REMARK SMILES IDX 11 1 10 2 5 3 6 4 7 5 9 6 8 7 4 8 2 9 3 10 1 11 12 13 13 14
REMARK SMILES IDX 14 15 19 16 15 17 18 18 20 19 16 20 17 21
REMARK H PARENT 4 12 18 22
ROOT
ATOM      1  S   UNL     1     -46.242  57.052 -95.267  1.00  0.00    -0.123 SA
ENDROOT
BRANCH   1   2
ATOM      2  C   UNL     1     -45.245  58.029 -94.139  1.00  0.00     0.031 A 
ATOM      3  C   UNL     1     -44.793  59.330 -94.456  1.00  0.00     0.054 A 
ATOM      4  C   UNL     1     -44.016  60.014 -93.514  1.00  0.00     0.027 A 
ATOM      5  C   UNL     1     -43.689  59.423 -92.288  1.00  0.00     0.002 A 
ATOM      6  C   UNL     1     -44.904  57.442 -92.912  1.00  0.00     0.017 A 
ATOM      7  C   UNL     1     -44.130  58.140 -91.988  1.00  0.00     0.001 A 
BRANCH   3   8
ATOM      8  N   UNL     1     -45.136  59.884 -95.715  1.00  0.00    -0.325 N 
ATOM      9  C   UNL     1     -44.456  59.761 -96.912  1.00  0.00     0.221 C 
ATOM     10  O   UNL     1     -43.388  59.189 -97.097  1.00  0.00    -0.275 OA
ATOM     11  C   UNL     1     -45.161  60.452 -98.051  1.00  0.00     0.114 C 
ATOM     12  H   UNL     1     -45.976  60.461 -95.727  1.00  0.00     0.169 HD
ENDBRANCH   3   8
ENDBRANCH   1   2
BRANCH   1  13
ATOM     13  C   UNL     1     -45.126  55.612 -95.458  1.00  0.00     0.088 C 
BRANCH  13  14
ATOM     14  C   UNL     1     -45.866  54.278 -95.623  1.00  0.00     0.089 C 
ATOM     15  C   UNL     1     -45.978  53.462 -94.335  1.00  0.00     0.024 C 
ATOM     16  C   UNL     1     -45.249  53.428 -96.722  1.00  0.00     0.230 C 
ATOM     17  C   UNL     1     -46.822  52.222 -94.596  1.00  0.00     0.101 C 
ATOM     18  N   UNL     1     -45.614  52.103 -96.728  1.00  0.00    -0.296 N 
ATOM     19  O   UNL     1     -44.505  53.879 -97.591  1.00  0.00    -0.274 OA
ATOM     20  C   UNL     1     -46.258  51.408 -95.735  1.00  0.00     0.226 C 
ATOM     21  O   UNL     1     -46.398  50.190 -95.806  1.00  0.00    -0.275 OA
ATOM     22  H   UNL     1     -45.211  51.535 -97.462  1.00  0.00     0.172 HD
ENDBRANCH  13  14
ENDBRANCH   1  13
TORSDOF 4
ENDMDL
MODEL 5
REMARK VINA RESULT:      -7.8      2.570      2.833
REMARK SMILES CC(=O)Nc1ccccc1SC[C@@H]1CCC(=O)NC1=O
REMARK SMILES IDX 11 1 10 2 5 3 6 4 7 5 9 6 8 7 4 8 2 9 3 10 1 11 12 13 13 14
REMARK SMILES IDX 14 15 19 16 15 17 18 18 20 19 16 20 17 21
REMARK H PARENT 4 12 18 22
ROOT
ATOM      1  S   UNL     1     -46.275  57.348 -95.309  1.00  0.00    -0.123 SA
ENDROOT
BRANCH   1   2
ATOM      2  C   UNL     1     -46.160  58.251 -96.856  1.00  0.00     0.031 A 
ATOM      3  C   UNL     1     -46.918  59.416 -97.114  1.00  0.00     0.054 A 
ATOM      4  C   UNL     1     -46.764  60.050 -98.353  1.00  0.00     0.027 A 
ATOM      5  C   UNL     1     -45.885  59.543 -99.314  1.00  0.00     0.002 A 
ATOM      6  C   UNL     1     -45.289  57.744 -97.831  1.00  0.00     0.017 A 
ATOM      7  C   UNL     1     -45.150  58.392 -99.057  1.00  0.00     0.001 A 
BRANCH   3   8
ATOM      8  N   UNL     1     -47.808  59.887 -96.116  1.00  0.00    -0.325 N 
ATOM      9  C   UNL     1     -49.178  60.046 -96.204  1.00  0.00     0.221 C 
ATOM     10  O   UNL     1     -49.879  59.860 -97.192  1.00  0.00    -0.275 OA
ATOM     11  C   UNL     1     -49.789  60.524 -94.912  1.00  0.00     0.114 C 
ATOM     12  H   UNL     1     -47.374  60.161 -95.236  1.00  0.00     0.169 HD
ENDBRANCH   3   8
ENDBRANCH   1   2
BRANCH   1  13
ATOM     13  C   UNL     1     -45.132  55.970 -95.700  1.00  0.00     0.088 C 
BRANCH  13  14
ATOM     14  C   UNL     1     -45.823  54.603 -95.781  1.00  0.00     0.089 C 
ATOM     15  C   UNL     1     -45.745  53.786 -94.491  1.00  0.00     0.024 C 
ATOM     16  C   UNL     1     -45.299  53.780 -96.947  1.00  0.00     0.230 C 
ATOM     17  C   UNL     1     -46.554  52.506 -94.655  1.00  0.00     0.101 C 
ATOM     18  N   UNL     1     -45.598  52.439 -96.914  1.00  0.00    -0.296 N 
ATOM     19  O   UNL     1     -44.683  54.263 -97.895  1.00  0.00    -0.274 OA
ATOM     20  C   UNL     1     -46.089  51.717 -95.854  1.00  0.00     0.226 C 
ATOM     21  O   UNL     1     -46.178  50.494 -95.912  1.00  0.00    -0.275 OA
ATOM     22  H   UNL     1     -45.258  51.889 -97.691  1.00  0.00     0.172 HD
ENDBRANCH  13  14
ENDBRANCH   1  13
TORSDOF 4
ENDMDL
MODEL 6
REMARK VINA RESULT:      -7.6      2.460      3.571
REMARK SMILES CC(=O)Nc1ccccc1SC[C@@H]1CCC(=O)NC1=O
REMARK SMILES IDX 11 1 10 2 5 3 6 4 7 5 9 6 8 7 4 8 2 9 3 10 1 11 12 13 13 14
REMARK SMILES IDX 14 15 19 16 15 17 18 18 20 19 16 20 17 21
REMARK H PARENT 4 12 18 22
ROOT
ATOM      1  S   UNL     1     -45.372  56.945 -96.871  1.00  0.00    -0.123 SA
ENDROOT
BRANCH   1   2
ATOM      2  C   UNL     1     -46.342  58.087 -95.882  1.00  0.00     0.031 A 
ATOM      3  C   UNL     1     -46.729  59.362 -96.355  1.00  0.00     0.054 A 
ATOM      4  C   UNL     1     -47.482  60.185 -95.509  1.00  0.00     0.027 A 
ATOM      5  C   UNL     1     -47.840  59.760 -94.226  1.00  0.00     0.002 A 
ATOM      6  C   UNL     1     -46.697  57.674 -94.591  1.00  0.00     0.017 A 
ATOM      7  C   UNL     1     -47.448  58.509 -93.765  1.00  0.00     0.001 A 
BRANCH   3   8
ATOM      8  N   UNL     1     -46.331  59.757 -97.657  1.00  0.00    -0.325 N 
ATOM      9  C   UNL     1     -47.131  59.953 -98.767  1.00  0.00     0.221 C 
ATOM     10  O   UNL     1     -48.340  59.766 -98.847  1.00  0.00    -0.275 OA
ATOM     11  C   UNL     1     -46.349  60.425 -99.967  1.00  0.00     0.114 C 
ATOM     12  H   UNL     1     -45.330  59.890 -97.789  1.00  0.00     0.169 HD
ENDBRANCH   3   8
ENDBRANCH   1   2
BRANCH   1  13
ATOM     13  C   UNL     1     -44.966  55.719 -95.571  1.00  0.00     0.088 C 
BRANCH  13  14
ATOM     14  C   UNL     1     -45.745  54.404 -95.702  1.00  0.00     0.089 C 
ATOM     15  C   UNL     1     -45.883  53.626 -94.392  1.00  0.00     0.024 C 
ATOM     16  C   UNL     1     -45.150  53.507 -96.776  1.00  0.00     0.230 C 
ATOM     17  C   UNL     1     -46.762  52.405 -94.622  1.00  0.00     0.101 C 
ATOM     18  N   UNL     1     -45.553  52.193 -96.747  1.00  0.00    -0.296 N 
ATOM     19  O   UNL     1     -44.392  53.912 -97.655  1.00  0.00    -0.274 OA
ATOM     20  C   UNL     1     -46.220  51.544 -95.737  1.00  0.00     0.226 C 
ATOM     21  O   UNL     1     -46.395  50.329 -95.775  1.00  0.00    -0.275 OA
ATOM     22  H   UNL     1     -45.166  51.594 -97.464  1.00  0.00     0.172 HD
ENDBRANCH  13  14
ENDBRANCH   1  13
TORSDOF 4
ENDMDL
MODEL 7
REMARK VINA RESULT:      -7.1      2.421      3.784
REMARK SMILES CC(=O)Nc1ccccc1SC[C@@H]1CCC(=O)NC1=O
REMARK SMILES IDX 11 1 10 2 5 3 6 4 7 5 9 6 8 7 4 8 2 9 3 10 1 11 12 13 13 14
REMARK SMILES IDX 14 15 19 16 15 17 18 18 20 19 16 20 17 21
REMARK H PARENT 4 12 18 22
ROOT
ATOM      1  S   UNL     1     -44.260  58.255 -95.955  1.00  0.00    -0.123 SA
ENDROOT
BRANCH   1   2
ATOM      2  C   UNL     1     -44.921  58.543 -94.312  1.00  0.00     0.031 A 
ATOM      3  C   UNL     1     -45.920  59.509 -94.054  1.00  0.00     0.054 A 
ATOM      4  C   UNL     1     -46.372  59.666 -92.738  1.00  0.00     0.027 A 
ATOM      5  C   UNL     1     -45.844  58.890 -91.701  1.00  0.00     0.002 A 
ATOM      6  C   UNL     1     -44.391  57.778 -93.264  1.00  0.00     0.017 A 
ATOM      7  C   UNL     1     -44.855  57.949 -91.961  1.00  0.00     0.001 A 
BRANCH   3   8
ATOM      8  N   UNL     1     -46.417  60.283 -95.133  1.00  0.00    -0.325 N 
ATOM      9  C   UNL     1     -47.636  60.166 -95.774  1.00  0.00     0.221 C 
ATOM     10  O   UNL     1     -48.502  59.325 -95.562  1.00  0.00    -0.275 OA
ATOM     11  C   UNL     1     -47.827  61.207 -96.847  1.00  0.00     0.114 C 
ATOM     12  H   UNL     1     -45.783  60.997 -95.489  1.00  0.00     0.169 HD
ENDBRANCH   3   8
ENDBRANCH   1   2
BRANCH   1  13
ATOM     13  C   UNL     1     -45.525  57.079 -96.567  1.00  0.00     0.088 C 
BRANCH  13  14
ATOM     14  C   UNL     1     -45.298  55.635 -96.104  1.00  0.00     0.089 C 
ATOM     15  C   UNL     1     -45.136  54.630 -97.245  1.00  0.00     0.024 C 
ATOM     16  C   UNL     1     -46.395  55.171 -95.158  1.00  0.00     0.230 C 
ATOM     17  C   UNL     1     -44.807  53.260 -96.668  1.00  0.00     0.101 C 
ATOM     18  N   UNL     1     -46.472  53.814 -94.953  1.00  0.00    -0.296 N 
ATOM     19  O   UNL     1     -47.150  55.940 -94.567  1.00  0.00    -0.274 OA
ATOM     20  C   UNL     1     -45.854  52.822 -95.673  1.00  0.00     0.226 C 
ATOM     21  O   UNL     1     -46.120  51.640 -95.475  1.00  0.00    -0.275 OA
ATOM     22  H   UNL     1     -47.196  53.502 -94.319  1.00  0.00     0.172 HD
ENDBRANCH  13  14
ENDBRANCH   1  13
TORSDOF 4
ENDMDL
MODEL 8
REMARK VINA RESULT:      -6.9      2.953      6.435
REMARK SMILES CC(=O)Nc1ccccc1SC[C@@H]1CCC(=O)NC1=O
REMARK SMILES IDX 11 1 10 2 5 3 6 4 7 5 9 6 8 7 4 8 2 9 3 10 1 11 12 13 13 14
REMARK SMILES IDX 14 15 19 16 15 17 18 18 20 19 16 20 17 21
REMARK H PARENT 4 12 18 22
ROOT
ATOM      1  S   UNL     1     -46.791  57.887 -94.980  1.00  0.00    -0.123 SA
ENDROOT
BRANCH   1   2
ATOM      2  C   UNL     1     -46.197  56.325 -95.632  1.00  0.00     0.031 A 
ATOM      3  C   UNL     1     -45.465  56.234 -96.838  1.00  0.00     0.054 A 
ATOM      4  C   UNL     1     -45.047  54.970 -97.270  1.00  0.00     0.027 A 
ATOM      5  C   UNL     1     -45.348  53.822 -96.530  1.00  0.00     0.002 A 
ATOM      6  C   UNL     1     -46.503  55.167 -94.903  1.00  0.00     0.017 A 
ATOM      7  C   UNL     1     -46.076  53.918 -95.350  1.00  0.00     0.001 A 
BRANCH   3   8
ATOM      8  N   UNL     1     -45.194  57.421 -97.564  1.00  0.00    -0.325 N 
ATOM      9  C   UNL     1     -45.426  57.671 -98.903  1.00  0.00     0.221 C 
ATOM     10  O   UNL     1     -45.863  56.883 -99.735  1.00  0.00    -0.275 OA
ATOM     11  C   UNL     1     -45.052  59.076 -99.303  1.00  0.00     0.114 C 
ATOM     12  H   UNL     1     -44.755  58.171 -97.031  1.00  0.00     0.169 HD
ENDBRANCH   3   8
ENDBRANCH   1   2
BRANCH   1  13
ATOM     13  C   UNL     1     -45.226  58.506 -94.255  1.00  0.00     0.088 C 
BRANCH  13  14
ATOM     14  C   UNL     1     -45.228  58.535 -92.722  1.00  0.00     0.089 C 
ATOM     15  C   UNL     1     -45.019  59.926 -92.122  1.00  0.00     0.024 C 
ATOM     16  C   UNL     1     -44.211  57.564 -92.142  1.00  0.00     0.230 C 
ATOM     17  C   UNL     1     -45.150  59.848 -90.608  1.00  0.00     0.101 C 
ATOM     18  N   UNL     1     -43.898  57.748 -90.817  1.00  0.00    -0.296 N 
ATOM     19  O   UNL     1     -43.718  56.637 -92.781  1.00  0.00    -0.274 OA
ATOM     20  C   UNL     1     -44.194  58.833 -90.029  1.00  0.00     0.226 C 
ATOM     21  O   UNL     1     -43.731  58.936 -88.896  1.00  0.00    -0.275 OA
ATOM     22  H   UNL     1     -43.227  57.100 -90.425  1.00  0.00     0.172 HD
ENDBRANCH  13  14
ENDBRANCH   1  13
TORSDOF 4
ENDMDL
MODEL 9
REMARK VINA RESULT:      -6.8      2.662      6.641
REMARK SMILES CC(=O)Nc1ccccc1SC[C@@H]1CCC(=O)NC1=O
REMARK SMILES IDX 11 1 10 2 5 3 6 4 7 5 9 6 8 7 4 8 2 9 3 10 1 11 12 13 13 14
REMARK SMILES IDX 14 15 19 16 15 17 18 18 20 19 16 20 17 21
REMARK H PARENT 4 12 18 22
ROOT
ATOM      1  S   UNL     1     -46.744  56.978 -94.492  1.00  0.00    -0.123 SA
ENDROOT
BRANCH   1   2
ATOM      2  C   UNL     1     -46.125  55.569 -95.416  1.00  0.00     0.031 A 
ATOM      3  C   UNL     1     -45.383  55.711 -96.610  1.00  0.00     0.054 A 
ATOM      4  C   UNL     1     -44.946  54.554 -97.265  1.00  0.00     0.027 A 
ATOM      5  C   UNL     1     -45.239  53.286 -96.752  1.00  0.00     0.002 A 
ATOM      6  C   UNL     1     -46.423  54.294 -94.916  1.00  0.00     0.017 A 
ATOM      7  C   UNL     1     -45.977  53.154 -95.582  1.00  0.00     0.001 A 
BRANCH   3   8
ATOM      8  N   UNL     1     -45.121  57.015 -97.101  1.00  0.00    -0.325 N 
ATOM      9  C   UNL     1     -45.311  57.496 -98.382  1.00  0.00     0.221 C 
ATOM     10  O   UNL     1     -45.694  56.861 -99.358  1.00  0.00    -0.275 OA
ATOM     11  C   UNL     1     -44.964  58.958 -98.509  1.00  0.00     0.114 C 
ATOM     12  H   UNL     1     -44.723  57.666 -96.426  1.00  0.00     0.169 HD
ENDBRANCH   3   8
ENDBRANCH   1   2
BRANCH   1  13
ATOM     13  C   UNL     1     -45.313  57.236 -93.376  1.00  0.00     0.088 C 
BRANCH  13  14
ATOM     14  C   UNL     1     -44.877  58.702 -93.265  1.00  0.00     0.089 C 
ATOM     15  C   UNL     1     -46.035  59.690 -93.120  1.00  0.00     0.024 C 
ATOM     16  C   UNL     1     -43.991  59.112 -94.432  1.00  0.00     0.230 C 
ATOM     17  C   UNL     1     -45.480  61.091 -92.909  1.00  0.00     0.101 C 
ATOM     18  N   UNL     1     -43.823  60.465 -94.607  1.00  0.00    -0.296 N 
ATOM     19  O   UNL     1     -43.413  58.308 -95.159  1.00  0.00    -0.274 OA
ATOM     20  C   UNL     1     -44.541  61.481 -94.025  1.00  0.00     0.226 C 
ATOM     21  O   UNL     1     -44.385  62.646 -94.377  1.00  0.00    -0.275 OA
ATOM     22  H   UNL     1     -43.229  60.743 -95.377  1.00  0.00     0.172 HD
ENDBRANCH  13  14
ENDBRANCH   1  13
TORSDOF 4
ENDMDL
MODEL 10
REMARK VINA RESULT:      -6.8      3.414      6.248
REMARK SMILES CC(=O)Nc1ccccc1SC[C@@H]1CCC(=O)NC1=O
REMARK SMILES IDX 11 1 10 2 5 3 6 4 7 5 9 6 8 7 4 8 2 9 3 10 1 11 12 13 13 14
REMARK SMILES IDX 14 15 19 16 15 17 18 18 20 19 16 20 17 21
REMARK H PARENT 4 12 18 22
ROOT
ATOM      1  S   UNL     1     -44.939  57.954 -96.622  1.00  0.00    -0.123 SA
ENDROOT
BRANCH   1   2
ATOM      2  C   UNL     1     -45.284  56.223 -96.300  1.00  0.00     0.031 A 
ATOM      3  C   UNL     1     -45.740  55.760 -95.044  1.00  0.00     0.054 A 
ATOM      4  C   UNL     1     -45.978  54.390 -94.885  1.00  0.00     0.027 A 
ATOM      5  C   UNL     1     -45.766  53.497 -95.941  1.00  0.00     0.002 A 
ATOM      6  C   UNL     1     -45.064  55.319 -97.348  1.00  0.00     0.017 A 
ATOM      7  C   UNL     1     -45.308  53.959 -97.170  1.00  0.00     0.001 A 
BRANCH   3   8
ATOM      8  N   UNL     1     -45.928  56.698 -93.998  1.00  0.00    -0.325 N 
ATOM      9  C   UNL     1     -44.985  57.186 -93.113  1.00  0.00     0.221 C 
ATOM     10  O   UNL     1     -43.808  56.852 -93.033  1.00  0.00    -0.275 OA
ATOM     11  C   UNL     1     -45.554  58.214 -92.169  1.00  0.00     0.114 C 
ATOM     12  H   UNL     1     -46.882  57.032 -93.875  1.00  0.00     0.169 HD
ENDBRANCH   3   8
ENDBRANCH   1   2
BRANCH   1  13
ATOM     13  C   UNL     1     -45.825  58.127 -98.217  1.00  0.00     0.088 C 
BRANCH  13  14
ATOM     14  C   UNL     1     -44.897  58.372 -99.413  1.00  0.00     0.089 C 
ATOM     15  C   UNL     1     -44.763  59.843 -99.810  1.00  0.00     0.024 C 
ATOM     16  C   UNL     1     -45.310  57.545-100.620  1.00  0.00     0.230 C 
ATOM     17  C   UNL     1     -43.739  59.972-100.929  1.00  0.00     0.101 C 
ATOM     18  N   UNL     1     -44.765  57.929-101.822  1.00  0.00    -0.296 N 
ATOM     19  O   UNL     1     -46.046  56.563-100.550  1.00  0.00    -0.274 OA
ATOM     20  C   UNL     1     -44.101  59.098-102.105  1.00  0.00     0.226 C 
ATOM     21  O   UNL     1     -43.788  59.383-103.257  1.00  0.00    -0.275 OA
ATOM     22  H   UNL     1     -45.031  57.378-102.627  1.00  0.00     0.172 HD
ENDBRANCH  13  14
ENDBRANCH   1  13
TORSDOF 4
ENDMDL
