MODEL 1
REMARK VINA RESULT:      -8.7      0.000      0.000
REMARK SMILES CC(=O)Nc1cccc(SC[C@H]2CCC(=O)NC2=O)c1
REMARK SMILES IDX 10 1 9 2 5 3 6 4 20 5 7 6 8 7 4 8 2 9 3 10 1 11 11 13 12 14
REMARK SMILES IDX 13 15 18 16 14 17 17 18 19 19 15 20 16 21
REMARK H PARENT 4 12 17 22
ROOT
ATOM      1  S   UNL     1     -44.420  57.013 -95.442  1.00  0.00    -0.125 SA
ENDROOT
BRANCH   1   2
ATOM      2  C   UNL     1     -45.015  57.608 -93.866  1.00  0.00     0.009 A 
ATOM      3  C   UNL     1     -44.511  58.232 -91.561  1.00  0.00     0.042 A 
ATOM      4  C   UNL     1     -45.864  58.503 -91.354  1.00  0.00     0.026 A 
ATOM      5  C   UNL     1     -44.097  57.779 -92.822  1.00  0.00     0.041 A 
ATOM      6  C   UNL     1     -46.788  58.320 -92.386  1.00  0.00     0.003 A 
ATOM      7  C   UNL     1     -46.367  57.869 -93.637  1.00  0.00     0.015 A 
BRANCH   3   8
ATOM      8  N   UNL     1     -43.516  58.381 -90.571  1.00  0.00    -0.326 N 
ATOM      9  C   UNL     1     -42.703  59.478 -90.352  1.00  0.00     0.221 C 
ATOM     10  O   UNL     1     -42.681  60.522 -90.994  1.00  0.00    -0.275 OA
ATOM     11  C   UNL     1     -41.757  59.265 -89.197  1.00  0.00     0.114 C 
ATOM     12  H   UNL     1     -43.383  57.587 -89.957  1.00  0.00     0.169 HD
ENDBRANCH   3   8
ENDBRANCH   1   2
BRANCH   1  13
ATOM     13  C   UNL     1     -45.830  55.961 -95.954  1.00  0.00     0.088 C 
BRANCH  13  14
ATOM     14  C   UNL     1     -45.621  54.492 -95.562  1.00  0.00     0.089 C 
ATOM     15  C   UNL     1     -46.847  53.855 -94.901  1.00  0.00     0.024 C 
ATOM     16  C   UNL     1     -45.268  53.681 -96.801  1.00  0.00     0.230 C 
ATOM     17  C   UNL     1     -46.542  52.410 -94.535  1.00  0.00     0.101 C 
ATOM     18  N   UNL     1     -45.345  52.317 -96.668  1.00  0.00    -0.296 N 
ATOM     19  O   UNL     1     -44.907  54.182 -97.862  1.00  0.00    -0.274 OA
ATOM     20  C   UNL     1     -46.082  51.628 -95.739  1.00  0.00     0.226 C 
ATOM     21  O   UNL     1     -46.323  50.432 -95.881  1.00  0.00    -0.275 OA
ATOM     22  H   UNL     1     -45.110  51.788 -97.498  1.00  0.00     0.172 HD
ENDBRANCH  13  14
ENDBRANCH   1  13
TORSDOF 4
ENDMDL
MODEL 2
REMARK VINA RESULT:      -8.5      2.016      2.886
REMARK SMILES CC(=O)Nc1cccc(SC[C@H]2CCC(=O)NC2=O)c1
REMARK SMILES IDX 10 1 9 2 5 3 6 4 20 5 7 6 8 7 4 8 2 9 3 10 1 11 11 13 12 14
REMARK SMILES IDX 13 15 18 16 14 17 17 18 19 19 15 20 16 21
REMARK H PARENT 4 12 17 22
ROOT
ATOM      1  S   UNL     1     -46.446  56.632 -95.203  1.00  0.00    -0.125 SA
ENDROOT
BRANCH   1   2
ATOM      2  C   UNL     1     -45.944  57.435 -93.689  1.00  0.00     0.009 A 
ATOM      3  C   UNL     1     -46.559  58.816 -91.771  1.00  0.00     0.042 A 
ATOM      4  C   UNL     1     -45.239  58.756 -91.324  1.00  0.00     0.026 A 
ATOM      5  C   UNL     1     -46.901  58.155 -92.961  1.00  0.00     0.041 A 
ATOM      6  C   UNL     1     -44.276  58.052 -92.053  1.00  0.00     0.003 A 
ATOM      7  C   UNL     1     -44.625  57.399 -93.234  1.00  0.00     0.015 A 
BRANCH   3   8
ATOM      8  N   UNL     1     -47.587  59.510 -91.101  1.00  0.00    -0.326 N 
ATOM      9  C   UNL     1     -48.017  60.805 -91.329  1.00  0.00     0.221 C 
ATOM     10  O   UNL     1     -47.566  61.601 -92.144  1.00  0.00    -0.275 OA
ATOM     11  C   UNL     1     -49.145  61.202 -90.408  1.00  0.00     0.114 C 
ATOM     12  H   UNL     1     -48.059  58.999 -90.366  1.00  0.00     0.169 HD
ENDBRANCH   3   8
ENDBRANCH   1   2
BRANCH   1  13
ATOM     13  C   UNL     1     -44.938  55.663 -95.582  1.00  0.00     0.088 C 
BRANCH  13  14
ATOM     14  C   UNL     1     -45.119  54.173 -95.259  1.00  0.00     0.089 C 
ATOM     15  C   UNL     1     -46.533  53.816 -94.794  1.00  0.00     0.024 C 
ATOM     16  C   UNL     1     -44.795  53.344 -96.492  1.00  0.00     0.230 C 
ATOM     17  C   UNL     1     -46.613  52.328 -94.483  1.00  0.00     0.101 C 
ATOM     18  N   UNL     1     -45.194  52.030 -96.455  1.00  0.00    -0.296 N 
ATOM     19  O   UNL     1     -44.192  53.782 -97.468  1.00  0.00    -0.274 OA
ATOM     20  C   UNL     1     -46.184  51.500 -95.668  1.00  0.00     0.226 C 
ATOM     21  O   UNL     1     -46.666  50.398 -95.912  1.00  0.00    -0.275 OA
ATOM     22  H   UNL     1     -44.975  51.489 -97.281  1.00  0.00     0.172 HD
ENDBRANCH  13  14
ENDBRANCH   1  13
TORSDOF 4
ENDMDL
MODEL 3
REMARK VINA RESULT:      -8.4      1.274      1.566
REMARK SMILES CC(=O)Nc1cccc(SC[C@H]2CCC(=O)NC2=O)c1
REMARK SMILES IDX 10 1 9 2 5 3 6 4 20 5 7 6 8 7 4 8 2 9 3 10 1 11 11 13 12 14
REMARK SMILES IDX 13 15 18 16 14 17 17 18 19 19 15 20 16 21
REMARK H PARENT 4 12 17 22
ROOT
ATOM      1  S   UNL     1     -46.305  56.687 -94.615  1.00  0.00    -0.125 SA
ENDROOT
BRANCH   1   2
ATOM      2  C   UNL     1     -45.220  58.041 -94.191  1.00  0.00     0.009 A 
ATOM      3  C   UNL     1     -43.882  59.171 -92.490  1.00  0.00     0.042 A 
ATOM      4  C   UNL     1     -43.544  60.148 -93.427  1.00  0.00     0.026 A 
ATOM      5  C   UNL     1     -44.727  58.122 -92.882  1.00  0.00     0.041 A 
ATOM      6  C   UNL     1     -44.043  60.082 -94.730  1.00  0.00     0.003 A 
ATOM      7  C   UNL     1     -44.883  59.035 -95.110  1.00  0.00     0.015 A 
BRANCH   3   8
ATOM      8  N   UNL     1     -43.429  59.169 -91.154  1.00  0.00    -0.326 N 
ATOM      9  C   UNL     1     -42.126  59.282 -90.706  1.00  0.00     0.221 C 
ATOM     10  O   UNL     1     -41.115  59.383 -91.391  1.00  0.00    -0.275 OA
ATOM     11  C   UNL     1     -42.034  59.238 -89.201  1.00  0.00     0.114 C 
ATOM     12  H   UNL     1     -44.145  59.068 -90.446  1.00  0.00     0.169 HD
ENDBRANCH   3   8
ENDBRANCH   1   2
BRANCH   1  13
ATOM     13  C   UNL     1     -45.189  55.683 -95.666  1.00  0.00     0.088 C 
BRANCH  13  14
ATOM     14  C   UNL     1     -45.273  54.189 -95.326  1.00  0.00     0.089 C 
ATOM     15  C   UNL     1     -46.662  53.746 -94.855  1.00  0.00     0.024 C 
ATOM     16  C   UNL     1     -44.897  53.368 -96.550  1.00  0.00     0.230 C 
ATOM     17  C   UNL     1     -46.645  52.260 -94.528  1.00  0.00     0.101 C 
ATOM     18  N   UNL     1     -45.210  52.032 -96.498  1.00  0.00    -0.296 N 
ATOM     19  O   UNL     1     -44.324  53.833 -97.532  1.00  0.00    -0.274 OA
ATOM     20  C   UNL     1     -46.164  51.448 -95.704  1.00  0.00     0.226 C 
ATOM     21  O   UNL     1     -46.574  50.314 -95.935  1.00  0.00    -0.275 OA
ATOM     22  H   UNL     1     -44.957  51.496 -97.318  1.00  0.00     0.172 HD
ENDBRANCH  13  14
ENDBRANCH   1  13
TORSDOF 4
ENDMDL
MODEL 4
REMARK VINA RESULT:      -8.3      3.312      4.635
REMARK SMILES CC(=O)Nc1cccc(SC[C@H]2CCC(=O)NC2=O)c1
REMARK SMILES IDX 10 1 9 2 5 3 6 4 20 5 7 6 8 7 4 8 2 9 3 10 1 11 11 13 12 14
REMARK SMILES IDX 13 15 18 16 14 17 17 18 19 19 15 20 16 21
REMARK H PARENT 4 12 17 22
ROOT
ATOM      1  S   UNL     1     -44.586  56.391 -94.049  1.00  0.00    -0.125 SA
ENDROOT
BRANCH   1   2
ATOM      2  C   UNL     1     -44.614  58.051 -94.707  1.00  0.00     0.009 A 
ATOM      3  C   UNL     1     -44.242  59.534 -96.610  1.00  0.00     0.042 A 
ATOM      4  C   UNL     1     -44.594  60.622 -95.812  1.00  0.00     0.026 A 
ATOM      5  C   UNL     1     -44.250  58.250 -96.045  1.00  0.00     0.041 A 
ATOM      6  C   UNL     1     -44.944  60.434 -94.472  1.00  0.00     0.003 A 
ATOM      7  C   UNL     1     -44.948  59.153 -93.919  1.00  0.00     0.015 A 
BRANCH   3   8
ATOM      8  N   UNL     1     -43.868  59.639 -97.966  1.00  0.00    -0.326 N 
ATOM      9  C   UNL     1     -44.625  59.313 -99.077  1.00  0.00     0.221 C 
ATOM     10  O   UNL     1     -45.759  58.849 -99.088  1.00  0.00    -0.275 OA
ATOM     11  C   UNL     1     -43.882  59.562-100.366  1.00  0.00     0.114 C 
ATOM     12  H   UNL     1     -42.934  59.988 -98.140  1.00  0.00     0.169 HD
ENDBRANCH   3   8
ENDBRANCH   1   2
BRANCH   1  13
ATOM     13  C   UNL     1     -45.526  55.502 -95.346  1.00  0.00     0.088 C 
BRANCH  13  14
ATOM     14  C   UNL     1     -45.510  53.984 -95.126  1.00  0.00     0.089 C 
ATOM     15  C   UNL     1     -46.860  53.419 -94.672  1.00  0.00     0.024 C 
ATOM     16  C   UNL     1     -45.109  53.287 -96.418  1.00  0.00     0.230 C 
ATOM     17  C   UNL     1     -46.745  51.915 -94.465  1.00  0.00     0.101 C 
ATOM     18  N   UNL     1     -45.338  51.934 -96.468  1.00  0.00    -0.296 N 
ATOM     19  O   UNL     1     -44.586  53.863 -97.368  1.00  0.00    -0.274 OA
ATOM     20  C   UNL     1     -46.239  51.231 -95.709  1.00  0.00     0.226 C 
ATOM     21  O   UNL     1     -46.582  50.095 -96.024  1.00  0.00    -0.275 OA
ATOM     22  H   UNL     1     -45.070  51.482 -97.332  1.00  0.00     0.172 HD
ENDBRANCH  13  14
ENDBRANCH   1  13
TORSDOF 4
ENDMDL
MODEL 5
REMARK VINA RESULT:      -8.2      2.368      2.629
REMARK SMILES CC(=O)Nc1cccc(SC[C@H]2CCC(=O)NC2=O)c1
REMARK SMILES IDX 10 1 9 2 5 3 6 4 20 5 7 6 8 7 4 8 2 9 3 10 1 11 11 13 12 14
REMARK SMILES IDX 13 15 18 16 14 17 17 18 19 19 15 20 16 21
REMARK H PARENT 4 12 17 22
ROOT
ATOM      1  S   UNL     1     -44.640  56.855 -94.721  1.00  0.00    -0.125 SA
ENDROOT
BRANCH   1   2
ATOM      2  C   UNL     1     -45.876  58.075 -94.304  1.00  0.00     0.009 A 
ATOM      3  C   UNL     1     -46.696  59.737 -92.715  1.00  0.00     0.042 A 
ATOM      4  C   UNL     1     -47.786  59.979 -93.553  1.00  0.00     0.026 A 
ATOM      5  C   UNL     1     -45.748  58.777 -93.099  1.00  0.00     0.041 A 
ATOM      6  C   UNL     1     -47.929  59.272 -94.750  1.00  0.00     0.003 A 
ATOM      7  C   UNL     1     -46.981  58.319 -95.122  1.00  0.00     0.015 A 
BRANCH   3   8
ATOM      8  N   UNL     1     -46.483  60.399 -91.488  1.00  0.00    -0.326 N 
ATOM      9  C   UNL     1     -47.410  60.650 -90.493  1.00  0.00     0.221 C 
ATOM     10  O   UNL     1     -48.601  60.361 -90.503  1.00  0.00    -0.275 OA
ATOM     11  C   UNL     1     -46.807  61.387 -89.323  1.00  0.00     0.114 C 
ATOM     12  H   UNL     1     -45.541  60.733 -91.325  1.00  0.00     0.169 HD
ENDBRANCH   3   8
ENDBRANCH   1   2
BRANCH   1  13
ATOM     13  C   UNL     1     -45.595  55.792 -95.867  1.00  0.00     0.088 C 
BRANCH  13  14
ATOM     14  C   UNL     1     -45.503  54.309 -95.483  1.00  0.00     0.089 C 
ATOM     15  C   UNL     1     -46.790  53.757 -94.862  1.00  0.00     0.024 C 
ATOM     16  C   UNL     1     -45.174  53.484 -96.719  1.00  0.00     0.230 C 
ATOM     17  C   UNL     1     -46.599  52.291 -94.501  1.00  0.00     0.101 C 
ATOM     18  N   UNL     1     -45.352  52.127 -96.601  1.00  0.00    -0.296 N 
ATOM     19  O   UNL     1     -44.748  53.965 -97.765  1.00  0.00    -0.274 OA
ATOM     20  C   UNL     1     -46.163  51.486 -95.699  1.00  0.00     0.226 C 
ATOM     21  O   UNL     1     -46.484  50.312 -95.859  1.00  0.00    -0.275 OA
ATOM     22  H   UNL     1     -45.132  51.589 -97.429  1.00  0.00     0.172 HD
ENDBRANCH  13  14
ENDBRANCH   1  13
TORSDOF 4
ENDMDL
MODEL 6
REMARK VINA RESULT:      -8.2      2.822      4.106
REMARK SMILES CC(=O)Nc1cccc(SC[C@H]2CCC(=O)NC2=O)c1
REMARK SMILES IDX 10 1 9 2 5 3 6 4 20 5 7 6 8 7 4 8 2 9 3 10 1 11 11 13 12 14
REMARK SMILES IDX 13 15 18 16 14 17 17 18 19 19 15 20 16 21
REMARK H PARENT 4 12 17 22
ROOT
ATOM      1  S   UNL     1     -44.539  56.382 -94.056  1.00  0.00    -0.125 SA
ENDROOT
BRANCH   1   2
ATOM      2  C   UNL     1     -45.726  57.635 -93.595  1.00  0.00     0.009 A 
ATOM      3  C   UNL     1     -47.610  59.046 -94.245  1.00  0.00     0.042 A 
ATOM      4  C   UNL     1     -47.600  59.618 -92.973  1.00  0.00     0.026 A 
ATOM      5  C   UNL     1     -46.663  58.056 -94.548  1.00  0.00     0.041 A 
ATOM      6  C   UNL     1     -46.659  59.214 -92.022  1.00  0.00     0.003 A 
ATOM      7  C   UNL     1     -45.721  58.230 -92.333  1.00  0.00     0.015 A 
BRANCH   3   8
ATOM      8  N   UNL     1     -48.518  59.402 -95.264  1.00  0.00    -0.326 N 
ATOM      9  C   UNL     1     -48.283  60.221 -96.353  1.00  0.00     0.221 C 
ATOM     10  O   UNL     1     -47.243  60.810 -96.625  1.00  0.00    -0.275 OA
ATOM     11  C   UNL     1     -49.503  60.370 -97.228  1.00  0.00     0.114 C 
ATOM     12  H   UNL     1     -49.450  59.016 -95.179  1.00  0.00     0.169 HD
ENDBRANCH   3   8
ENDBRANCH   1   2
BRANCH   1  13
ATOM     13  C   UNL     1     -45.475  55.500 -95.360  1.00  0.00     0.088 C 
BRANCH  13  14
ATOM     14  C   UNL     1     -45.475  53.981 -95.137  1.00  0.00     0.089 C 
ATOM     15  C   UNL     1     -46.828  53.431 -94.675  1.00  0.00     0.024 C 
ATOM     16  C   UNL     1     -45.087  53.279 -96.430  1.00  0.00     0.230 C 
ATOM     17  C   UNL     1     -46.727  51.927 -94.466  1.00  0.00     0.101 C 
ATOM     18  N   UNL     1     -45.331  51.928 -96.477  1.00  0.00    -0.296 N 
ATOM     19  O   UNL     1     -44.562  53.848 -97.383  1.00  0.00    -0.274 OA
ATOM     20  C   UNL     1     -46.234  51.235 -95.712  1.00  0.00     0.226 C 
ATOM     21  O   UNL     1     -46.592  50.103 -96.024  1.00  0.00    -0.275 OA
ATOM     22  H   UNL     1     -45.070  51.472 -97.341  1.00  0.00     0.172 HD
ENDBRANCH  13  14
ENDBRANCH   1  13
TORSDOF 4
ENDMDL
MODEL 7
REMARK VINA RESULT:      -7.7      3.571      4.720
REMARK SMILES CC(=O)Nc1cccc(SC[C@H]2CCC(=O)NC2=O)c1
REMARK SMILES IDX 10 1 9 2 5 3 6 4 20 5 7 6 8 7 4 8 2 9 3 10 1 11 11 13 12 14
REMARK SMILES IDX 13 15 18 16 14 17 17 18 19 19 15 20 16 21
REMARK H PARENT 4 12 17 22
ROOT
ATOM      1  S   UNL     1     -44.635  57.034 -94.916  1.00  0.00    -0.125 SA
ENDROOT
BRANCH   1   2
ATOM      2  C   UNL     1     -45.360  58.620 -95.301  1.00  0.00     0.009 A 
ATOM      3  C   UNL     1     -47.335  59.890 -95.972  1.00  0.00     0.042 A 
ATOM      4  C   UNL     1     -46.572  61.057 -95.954  1.00  0.00     0.026 A 
ATOM      5  C   UNL     1     -46.717  58.673 -95.648  1.00  0.00     0.041 A 
ATOM      6  C   UNL     1     -45.215  61.011 -95.623  1.00  0.00     0.003 A 
ATOM      7  C   UNL     1     -44.609  59.796 -95.303  1.00  0.00     0.015 A 
BRANCH   3   8
ATOM      8  N   UNL     1     -48.705  59.848 -96.303  1.00  0.00    -0.326 N 
ATOM      9  C   UNL     1     -49.770  60.297 -95.543  1.00  0.00     0.221 C 
ATOM     10  O   UNL     1     -49.721  60.798 -94.425  1.00  0.00    -0.275 OA
ATOM     11  C   UNL     1     -51.094  60.081 -96.233  1.00  0.00     0.114 C 
ATOM     12  H   UNL     1     -48.930  59.435 -97.200  1.00  0.00     0.169 HD
ENDBRANCH   3   8
ENDBRANCH   1   2
BRANCH   1  13
ATOM     13  C   UNL     1     -45.675  55.933 -95.945  1.00  0.00     0.088 C 
BRANCH  13  14
ATOM     14  C   UNL     1     -45.522  54.460 -95.543  1.00  0.00     0.089 C 
ATOM     15  C   UNL     1     -46.781  53.866 -94.905  1.00  0.00     0.024 C 
ATOM     16  C   UNL     1     -45.170  53.633 -96.771  1.00  0.00     0.230 C 
ATOM     17  C   UNL     1     -46.531  52.413 -94.527  1.00  0.00     0.101 C 
ATOM     18  N   UNL     1     -45.295  52.272 -96.635  1.00  0.00    -0.296 N 
ATOM     19  O   UNL     1     -44.772  54.117 -97.827  1.00  0.00    -0.274 OA
ATOM     20  C   UNL     1     -46.073  51.611 -95.719  1.00  0.00     0.226 C 
ATOM     21  O   UNL     1     -46.349  50.424 -95.861  1.00  0.00    -0.275 OA
ATOM     22  H   UNL     1     -45.060  51.732 -97.458  1.00  0.00     0.172 HD
ENDBRANCH  13  14
ENDBRANCH   1  13
TORSDOF 4
ENDMDL
MODEL 8
REMARK VINA RESULT:      -6.8      4.089      6.916
REMARK SMILES CC(=O)Nc1cccc(SC[C@H]2CCC(=O)NC2=O)c1
REMARK SMILES IDX 10 1 9 2 5 3 6 4 20 5 7 6 8 7 4 8 2 9 3 10 1 11 11 13 12 14
REMARK SMILES IDX 13 15 18 16 14 17 17 18 19 19 15 20 16 21
REMARK H PARENT 4 12 17 22
ROOT
ATOM      1  S   UNL     1     -45.195  58.756 -96.585  1.00  0.00    -0.125 SA
ENDROOT
BRANCH   1   2
ATOM      2  C   UNL     1     -44.861  57.448 -95.415  1.00  0.00     0.009 A 
ATOM      3  C   UNL     1     -44.837  55.056 -94.930  1.00  0.00     0.042 A 
ATOM      4  C   UNL     1     -44.398  55.338 -93.636  1.00  0.00     0.026 A 
ATOM      5  C   UNL     1     -45.071  56.121 -95.812  1.00  0.00     0.041 A 
ATOM      6  C   UNL     1     -44.200  56.660 -93.228  1.00  0.00     0.003 A 
ATOM      7  C   UNL     1     -44.436  57.712 -94.112  1.00  0.00     0.015 A 
BRANCH   3   8
ATOM      8  N   UNL     1     -45.069  53.753 -95.417  1.00  0.00    -0.326 N 
ATOM      9  C   UNL     1     -46.184  52.961 -95.208  1.00  0.00     0.221 C 
ATOM     10  O   UNL     1     -47.172  53.238 -94.538  1.00  0.00    -0.275 OA
ATOM     11  C   UNL     1     -46.068  51.621 -95.892  1.00  0.00     0.114 C 
ATOM     12  H   UNL     1     -44.329  53.353 -95.980  1.00  0.00     0.169 HD
ENDBRANCH   3   8
ENDBRANCH   1   2
BRANCH   1  13
ATOM     13  C   UNL     1     -45.565  57.773 -98.086  1.00  0.00     0.088 C 
BRANCH  13  14
ATOM     14  C   UNL     1     -45.406  58.603 -99.368  1.00  0.00     0.089 C 
ATOM     15  C   UNL     1     -44.132  59.453 -99.392  1.00  0.00     0.024 C 
ATOM     16  C   UNL     1     -45.389  57.676-100.574  1.00  0.00     0.230 C 
ATOM     17  C   UNL     1     -44.069  60.249-100.687  1.00  0.00     0.101 C 
ATOM     18  N   UNL     1     -44.957  58.232-101.753  1.00  0.00    -0.296 N 
ATOM     19  O   UNL     1     -45.755  56.505-100.538  1.00  0.00    -0.274 OA
ATOM     20  C   UNL     1     -44.165  59.344-101.889  1.00  0.00     0.226 C 
ATOM     21  O   UNL     1     -43.593  59.589-102.947  1.00  0.00    -0.275 OA
ATOM     22  H   UNL     1     -44.947  57.607-102.548  1.00  0.00     0.172 HD
ENDBRANCH  13  14
ENDBRANCH   1  13
TORSDOF 4
ENDMDL
MODEL 9
REMARK VINA RESULT:      -6.8      1.995      2.284
REMARK SMILES CC(=O)Nc1cccc(SC[C@H]2CCC(=O)NC2=O)c1
REMARK SMILES IDX 10 1 9 2 5 3 6 4 20 5 7 6 8 7 4 8 2 9 3 10 1 11 11 13 12 14
REMARK SMILES IDX 13 15 18 16 14 17 17 18 19 19 15 20 16 21
REMARK H PARENT 4 12 17 22
ROOT
ATOM      1  S   UNL     1     -46.735  57.346 -94.687  1.00  0.00    -0.125 SA
ENDROOT
BRANCH   1   2
ATOM      2  C   UNL     1     -45.578  58.089 -93.547  1.00  0.00     0.009 A 
ATOM      3  C   UNL     1     -44.095  59.955 -93.019  1.00  0.00     0.042 A 
ATOM      4  C   UNL     1     -43.729  59.311 -91.837  1.00  0.00     0.026 A 
ATOM      5  C   UNL     1     -45.018  59.332 -93.872  1.00  0.00     0.041 A 
ATOM      6  C   UNL     1     -44.272  58.064 -91.513  1.00  0.00     0.003 A 
ATOM      7  C   UNL     1     -45.189  57.452 -92.367  1.00  0.00     0.015 A 
BRANCH   3   8
ATOM      8  N   UNL     1     -43.588  61.207 -93.424  1.00  0.00    -0.326 N 
ATOM      9  C   UNL     1     -42.496  61.881 -92.908  1.00  0.00     0.221 C 
ATOM     10  O   UNL     1     -41.775  61.523 -91.984  1.00  0.00    -0.275 OA
ATOM     11  C   UNL     1     -42.260  63.201 -93.601  1.00  0.00     0.114 C 
ATOM     12  H   UNL     1     -44.089  61.664 -94.176  1.00  0.00     0.169 HD
ENDBRANCH   3   8
ENDBRANCH   1   2
BRANCH   1  13
ATOM     13  C   UNL     1     -45.581  56.660 -95.933  1.00  0.00     0.088 C 
BRANCH  13  14
ATOM     14  C   UNL     1     -45.303  55.169 -95.698  1.00  0.00     0.089 C 
ATOM     15  C   UNL     1     -46.391  54.467 -94.880  1.00  0.00     0.024 C 
ATOM     16  C   UNL     1     -45.176  54.459 -97.038  1.00  0.00     0.230 C 
ATOM     17  C   UNL     1     -46.024  53.003 -94.685  1.00  0.00     0.101 C 
ATOM     18  N   UNL     1     -45.227  53.087 -96.998  1.00  0.00    -0.296 N 
ATOM     19  O   UNL     1     -45.010  55.043 -98.105  1.00  0.00    -0.274 OA
ATOM     20  C   UNL     1     -45.786  52.320 -96.008  1.00  0.00     0.226 C 
ATOM     21  O   UNL     1     -46.047  51.135 -96.196  1.00  0.00    -0.275 OA
ATOM     22  H   UNL     1     -45.143  52.626 -97.894  1.00  0.00     0.172 HD
ENDBRANCH  13  14
ENDBRANCH   1  13
TORSDOF 4
ENDMDL
MODEL 10
REMARK VINA RESULT:      -6.7      2.056      7.391
REMARK SMILES CC(=O)Nc1cccc(SC[C@H]2CCC(=O)NC2=O)c1
REMARK SMILES IDX 10 1 9 2 5 3 6 4 20 5 7 6 8 7 4 8 2 9 3 10 1 11 11 13 12 14
REMARK SMILES IDX 13 15 18 16 14 17 17 18 19 19 15 20 16 21
REMARK H PARENT 4 12 17 22
ROOT
ATOM      1  S   UNL     1     -45.662  59.261 -94.694  1.00  0.00    -0.125 SA
ENDROOT
BRANCH   1   2
ATOM      2  C   UNL     1     -45.632  57.723 -95.602  1.00  0.00     0.009 A 
ATOM      3  C   UNL     1     -45.964  55.304 -95.597  1.00  0.00     0.042 A 
ATOM      4  C   UNL     1     -45.578  55.264 -96.937  1.00  0.00     0.026 A 
ATOM      5  C   UNL     1     -45.982  56.542 -94.936  1.00  0.00     0.041 A 
ATOM      6  C   UNL     1     -45.213  56.436 -97.604  1.00  0.00     0.003 A 
ATOM      7  C   UNL     1     -45.234  57.661 -96.938  1.00  0.00     0.015 A 
BRANCH   3   8
ATOM      8  N   UNL     1     -46.337  54.168 -94.849  1.00  0.00    -0.326 N 
ATOM      9  C   UNL     1     -46.352  52.851 -95.268  1.00  0.00     0.221 C 
ATOM     10  O   UNL     1     -46.061  52.425 -96.380  1.00  0.00    -0.275 OA
ATOM     11  C   UNL     1     -46.814  51.911 -94.181  1.00  0.00     0.114 C 
ATOM     12  H   UNL     1     -46.635  54.345 -93.897  1.00  0.00     0.169 HD
ENDBRANCH   3   8
ENDBRANCH   1   2
BRANCH   1  13
ATOM     13  C   UNL     1     -43.901  59.393 -94.205  1.00  0.00     0.088 C 
BRANCH  13  14
ATOM     14  C   UNL     1     -43.745  59.742 -92.719  1.00  0.00     0.089 C 
ATOM     15  C   UNL     1     -44.778  60.756 -92.217  1.00  0.00     0.024 C 
ATOM     16  C   UNL     1     -43.869  58.476 -91.884  1.00  0.00     0.230 C 
ATOM     17  C   UNL     1     -44.536  61.051 -90.744  1.00  0.00     0.101 C 
ATOM     18  N   UNL     1     -44.050  58.661 -90.535  1.00  0.00    -0.296 N 
ATOM     19  O   UNL     1     -43.790  57.343 -92.350  1.00  0.00    -0.274 OA
ATOM     20  C   UNL     1     -44.546  59.785 -89.925  1.00  0.00     0.226 C 
ATOM     21  O   UNL     1     -44.946  59.752 -88.765  1.00  0.00    -0.275 OA
ATOM     22  H   UNL     1     -44.133  57.812 -89.991  1.00  0.00     0.172 HD
ENDBRANCH  13  14
ENDBRANCH   1  13
TORSDOF 4
ENDMDL
