MODEL 1
REMARK VINA RESULT:      -8.8      0.000      0.000
REMARK SMILES CC(=O)Nc1sccc1C(=O)N[C@H]1CCC(=O)NC1=O
REMARK SMILES IDX 5 1 6 2 7 3 8 4 9 5 4 6 2 7 3 8 1 9 10 11 11 12 12 13 13 15
REMARK SMILES IDX 14 16 19 17 15 18 18 19 20 20 16 21 17 22
REMARK H PARENT 4 10 12 14 18 23
ROOT
ATOM      1  C   UNL     1     -44.773  58.764 -94.222  1.00  0.00     0.108 A 
ATOM      2  S   UNL     1     -44.742  60.264 -95.017  1.00  0.00    -0.126 S 
ATOM      3  C   UNL     1     -44.702  59.533 -96.554  1.00  0.00     0.068 A 
ATOM      4  C   UNL     1     -44.710  58.159 -96.466  1.00  0.00     0.028 A 
ATOM      5  C   UNL     1     -44.743  57.688 -95.105  1.00  0.00     0.074 A 
ENDROOT
BRANCH   1   6
ATOM      6  N   UNL     1     -44.828  58.676 -92.839  1.00  0.00    -0.317 N 
ATOM      7  C   UNL     1     -43.818  58.938 -91.933  1.00  0.00     0.221 C 
ATOM      8  O   UNL     1     -42.661  59.268 -92.166  1.00  0.00    -0.275 OA
ATOM      9  C   UNL     1     -44.280  58.734 -90.510  1.00  0.00     0.114 C 
ATOM     10  H   UNL     1     -45.733  58.380 -92.472  1.00  0.00     0.170 HD
ENDBRANCH   1   6
BRANCH   5  11
ATOM     11  C   UNL     1     -44.756  56.297 -94.638  1.00  0.00     0.254 C 
ATOM     12  O   UNL     1     -44.145  55.940 -93.632  1.00  0.00    -0.269 OA
ATOM     13  N   UNL     1     -45.479  55.412 -95.403  1.00  0.00    -0.340 N 
ATOM     14  H   UNL     1     -45.767  55.688 -96.335  1.00  0.00     0.164 HD
BRANCH  13  15
ATOM     15  C   UNL     1     -45.456  53.981 -95.140  1.00  0.00     0.172 C 
ATOM     16  C   UNL     1     -46.812  53.452 -94.685  1.00  0.00     0.045 C 
ATOM     17  C   UNL     1     -45.050  53.261 -96.430  1.00  0.00     0.249 C 
ATOM     18  C   UNL     1     -46.725  51.948 -94.475  1.00  0.00     0.103 C 
ATOM     19  N   UNL     1     -45.303  51.914 -96.475  1.00  0.00    -0.295 N 
ATOM     20  O   UNL     1     -44.517  53.845 -97.374  1.00  0.00    -0.272 OA
ATOM     21  C   UNL     1     -46.235  51.246 -95.720  1.00  0.00     0.226 C 
ATOM     22  O   UNL     1     -46.620  50.126 -96.040  1.00  0.00    -0.275 OA
ATOM     23  H   UNL     1     -45.047  51.450 -97.337  1.00  0.00     0.172 HD
ENDBRANCH  13  15
ENDBRANCH   5  11
TORSDOF 3
ENDMDL
MODEL 2
REMARK VINA RESULT:      -8.0      2.432      4.179
REMARK SMILES CC(=O)Nc1sccc1C(=O)N[C@H]1CCC(=O)NC1=O
REMARK SMILES IDX 5 1 6 2 7 3 8 4 9 5 4 6 2 7 3 8 1 9 10 11 11 12 12 13 13 15
REMARK SMILES IDX 14 16 19 17 15 18 18 19 20 20 16 21 17 22
REMARK H PARENT 4 10 12 14 18 23
ROOT
ATOM      1  C   UNL     1     -45.718  58.727 -97.656  1.00  0.00     0.108 A 
ATOM      2  S   UNL     1     -46.262  60.300 -97.996  1.00  0.00    -0.126 S 
ATOM      3  C   UNL     1     -46.377  60.697 -96.344  1.00  0.00     0.068 A 
ATOM      4  C   UNL     1     -46.008  59.643 -95.539  1.00  0.00     0.028 A 
ATOM      5  C   UNL     1     -45.625  58.475 -96.291  1.00  0.00     0.074 A 
ENDROOT
BRANCH   1   6
ATOM      6  N   UNL     1     -45.408  57.832 -98.669  1.00  0.00    -0.317 N 
ATOM      7  C   UNL     1     -46.083  57.633 -99.859  1.00  0.00     0.221 C 
ATOM      8  O   UNL     1     -47.108  58.181-100.247  1.00  0.00    -0.275 OA
ATOM      9  C   UNL     1     -45.421  56.570-100.703  1.00  0.00     0.114 C 
ATOM     10  H   UNL     1     -44.580  57.264 -98.490  1.00  0.00     0.170 HD
ENDBRANCH   1   6
BRANCH   5  11
ATOM     11  C   UNL     1     -45.182  57.177 -95.767  1.00  0.00     0.254 C 
ATOM     12  O   UNL     1     -44.094  57.035 -95.210  1.00  0.00    -0.269 OA
ATOM     13  N   UNL     1     -46.048  56.125 -95.953  1.00  0.00    -0.340 N 
ATOM     14  H   UNL     1     -46.812  56.227 -96.613  1.00  0.00     0.164 HD
BRANCH  13  15
ATOM     15  C   UNL     1     -45.672  54.760 -95.618  1.00  0.00     0.172 C 
ATOM     16  C   UNL     1     -46.796  54.004 -94.917  1.00  0.00     0.045 C 
ATOM     17  C   UNL     1     -45.314  54.027 -96.915  1.00  0.00     0.249 C 
ATOM     18  C   UNL     1     -46.351  52.576 -94.641  1.00  0.00     0.103 C 
ATOM     19  N   UNL     1     -45.270  52.658 -96.841  1.00  0.00    -0.295 N 
ATOM     20  O   UNL     1     -45.069  54.621 -97.965  1.00  0.00    -0.272 OA
ATOM     21  C   UNL     1     -45.909  51.882 -95.908  1.00  0.00     0.226 C 
ATOM     22  O   UNL     1     -46.082  50.682 -96.096  1.00  0.00    -0.275 OA
ATOM     23  H   UNL     1     -45.049  52.182 -97.706  1.00  0.00     0.172 HD
ENDBRANCH  13  15
ENDBRANCH   5  11
TORSDOF 3
ENDMDL
MODEL 3
REMARK VINA RESULT:      -6.5      2.500      3.706
REMARK SMILES CC(=O)Nc1sccc1C(=O)N[C@H]1CCC(=O)NC1=O
REMARK SMILES IDX 5 1 6 2 7 3 8 4 9 5 4 6 2 7 3 8 1 9 10 11 11 12 12 13 13 15
REMARK SMILES IDX 14 16 19 17 15 18 18 19 20 20 16 21 17 22
REMARK H PARENT 4 10 12 14 18 23
ROOT
ATOM      1  C   UNL     1     -45.227  59.648 -90.903  1.00  0.00     0.108 A 
ATOM      2  S   UNL     1     -46.329  60.666 -90.109  1.00  0.00    -0.126 S 
ATOM      3  C   UNL     1     -47.630  60.131 -91.068  1.00  0.00     0.068 A 
ATOM      4  C   UNL     1     -47.230  59.187 -91.988  1.00  0.00     0.028 A 
ATOM      5  C   UNL     1     -45.821  58.896 -91.912  1.00  0.00     0.074 A 
ENDROOT
BRANCH   1   6
ATOM      6  N   UNL     1     -43.888  59.605 -90.541  1.00  0.00    -0.317 N 
ATOM      7  C   UNL     1     -43.343  59.115 -89.370  1.00  0.00     0.221 C 
ATOM      8  O   UNL     1     -43.931  58.649 -88.400  1.00  0.00    -0.275 OA
ATOM      9  C   UNL     1     -41.839  59.241 -89.360  1.00  0.00     0.114 C 
ATOM     10  H   UNL     1     -43.252  59.989 -91.239  1.00  0.00     0.170 HD
ENDBRANCH   1   6
BRANCH   5  11
ATOM     11  C   UNL     1     -45.055  57.952 -92.734  1.00  0.00     0.254 C 
ATOM     12  O   UNL     1     -43.835  57.832 -92.625  1.00  0.00    -0.269 OA
ATOM     13  N   UNL     1     -45.780  57.222 -93.646  1.00  0.00    -0.340 N 
ATOM     14  H   UNL     1     -46.726  57.513 -93.869  1.00  0.00     0.164 HD
BRANCH  13  15
ATOM     15  C   UNL     1     -45.130  56.362 -94.623  1.00  0.00     0.172 C 
ATOM     16  C   UNL     1     -45.511  54.895 -94.450  1.00  0.00     0.045 C 
ATOM     17  C   UNL     1     -45.549  56.822 -96.023  1.00  0.00     0.249 C 
ATOM     18  C   UNL     1     -44.835  54.065 -95.530  1.00  0.00     0.103 C 
ATOM     19  N   UNL     1     -45.318  55.934 -97.044  1.00  0.00    -0.295 N 
ATOM     20  O   UNL     1     -46.054  57.923 -96.234  1.00  0.00    -0.272 OA
ATOM     21  C   UNL     1     -45.174  54.576 -96.911  1.00  0.00     0.226 C 
ATOM     22  O   UNL     1     -45.292  53.832 -97.878  1.00  0.00    -0.275 OA
ATOM     23  H   UNL     1     -45.613  56.240 -97.962  1.00  0.00     0.172 HD
ENDBRANCH  13  15
ENDBRANCH   5  11
TORSDOF 3
ENDMDL
MODEL 4
REMARK VINA RESULT:      -6.3      4.040      6.430
REMARK SMILES CC(=O)Nc1sccc1C(=O)N[C@H]1CCC(=O)NC1=O
REMARK SMILES IDX 5 1 6 2 7 3 8 4 9 5 4 6 2 7 3 8 1 9 10 11 11 12 12 13 13 15
REMARK SMILES IDX 14 16 19 17 15 18 18 19 20 20 16 21 17 22
REMARK H PARENT 4 10 12 14 18 23
ROOT
ATOM      1  C   UNL     1     -45.676  55.567 -95.283  1.00  0.00     0.108 A 
ATOM      2  S   UNL     1     -45.657  53.905 -94.936  1.00  0.00    -0.126 S 
ATOM      3  C   UNL     1     -45.237  53.500 -96.535  1.00  0.00     0.068 A 
ATOM      4  C   UNL     1     -45.114  54.618 -97.329  1.00  0.00     0.028 A 
ATOM      5  C   UNL     1     -45.376  55.841 -96.614  1.00  0.00     0.074 A 
ENDROOT
BRANCH   1   6
ATOM      6  N   UNL     1     -45.960  56.509 -94.306  1.00  0.00    -0.317 N 
ATOM      7  C   UNL     1     -45.098  57.041 -93.366  1.00  0.00     0.221 C 
ATOM      8  O   UNL     1     -43.918  56.767 -93.183  1.00  0.00    -0.275 OA
ATOM      9  C   UNL     1     -45.792  58.050 -92.482  1.00  0.00     0.114 C 
ATOM     10  H   UNL     1     -46.929  56.830 -94.300  1.00  0.00     0.170 HD
ENDBRANCH   1   6
BRANCH   5  11
ATOM     11  C   UNL     1     -45.341  57.211 -97.139  1.00  0.00     0.254 C 
ATOM     12  O   UNL     1     -45.173  58.186 -96.407  1.00  0.00    -0.269 OA
ATOM     13  N   UNL     1     -45.525  57.341 -98.495  1.00  0.00    -0.340 N 
ATOM     14  H   UNL     1     -45.891  56.554 -99.020  1.00  0.00     0.164 HD
BRANCH  13  15
ATOM     15  C   UNL     1     -45.662  58.646 -99.124  1.00  0.00     0.172 C 
ATOM     16  C   UNL     1     -44.313  59.267 -99.472  1.00  0.00     0.045 C 
ATOM     17  C   UNL     1     -46.476  58.478-100.411  1.00  0.00     0.249 C 
ATOM     18  C   UNL     1     -44.533  60.603-100.166  1.00  0.00     0.103 C 
ATOM     19  N   UNL     1     -46.417  59.518-101.303  1.00  0.00    -0.295 N 
ATOM     20  O   UNL     1     -47.156  57.477-100.637  1.00  0.00    -0.272 OA
ATOM     21  C   UNL     1     -45.414  60.452-101.383  1.00  0.00     0.226 C 
ATOM     22  O   UNL     1     -45.271  61.138-102.389  1.00  0.00    -0.275 OA
ATOM     23  H   UNL     1     -46.945  59.391-102.157  1.00  0.00     0.172 HD
ENDBRANCH  13  15
ENDBRANCH   5  11
TORSDOF 3
ENDMDL
MODEL 5
REMARK VINA RESULT:      -6.3      3.047      6.535
REMARK SMILES CC(=O)Nc1sccc1C(=O)N[C@H]1CCC(=O)NC1=O
REMARK SMILES IDX 5 1 6 2 7 3 8 4 9 5 4 6 2 7 3 8 1 9 10 11 11 12 12 13 13 15
REMARK SMILES IDX 14 16 19 17 15 18 18 19 20 20 16 21 17 22
REMARK H PARENT 4 10 12 14 18 23
ROOT
ATOM      1  C   UNL     1     -45.516  55.708 -96.506  1.00  0.00     0.108 A 
ATOM      2  S   UNL     1     -45.031  54.227 -97.180  1.00  0.00    -0.126 S 
ATOM      3  C   UNL     1     -45.450  53.364 -95.773  1.00  0.00     0.068 A 
ATOM      4  C   UNL     1     -45.953  54.194 -94.797  1.00  0.00     0.028 A 
ATOM      5  C   UNL     1     -45.992  55.576 -95.205  1.00  0.00     0.074 A 
ENDROOT
BRANCH   1   6
ATOM      6  N   UNL     1     -45.431  56.893 -97.222  1.00  0.00    -0.317 N 
ATOM      7  C   UNL     1     -44.643  57.994 -96.946  1.00  0.00     0.221 C 
ATOM      8  O   UNL     1     -43.885  58.162 -95.997  1.00  0.00    -0.275 OA
ATOM      9  C   UNL     1     -44.831  59.085 -97.973  1.00  0.00     0.114 C 
ATOM     10  H   UNL     1     -46.033  56.932 -98.044  1.00  0.00     0.170 HD
ENDBRANCH   1   6
BRANCH   5  11
ATOM     11  C   UNL     1     -46.460  56.728 -94.426  1.00  0.00     0.254 C 
ATOM     12  O   UNL     1     -47.608  57.160 -94.525  1.00  0.00    -0.269 OA
ATOM     13  N   UNL     1     -45.533  57.307 -93.592  1.00  0.00    -0.340 N 
ATOM     14  H   UNL     1     -44.552  57.079 -93.711  1.00  0.00     0.164 HD
BRANCH  13  15
ATOM     15  C   UNL     1     -45.817  58.542 -92.876  1.00  0.00     0.172 C 
ATOM     16  C   UNL     1     -47.036  58.418 -91.967  1.00  0.00     0.045 C 
ATOM     17  C   UNL     1     -44.596  58.896 -92.023  1.00  0.00     0.249 C 
ATOM     18  C   UNL     1     -47.245  59.727 -91.219  1.00  0.00     0.103 C 
ATOM     19  N   UNL     1     -44.800  59.822 -91.032  1.00  0.00    -0.295 N 
ATOM     20  O   UNL     1     -43.488  58.395 -92.212  1.00  0.00    -0.272 OA
ATOM     21  C   UNL     1     -46.006  60.125 -90.451  1.00  0.00     0.226 C 
ATOM     22  O   UNL     1     -46.059  60.712 -89.376  1.00  0.00    -0.275 OA
ATOM     23  H   UNL     1     -43.992  60.038 -90.463  1.00  0.00     0.172 HD
ENDBRANCH  13  15
ENDBRANCH   5  11
TORSDOF 3
ENDMDL
MODEL 6
REMARK VINA RESULT:      -6.0      2.072      6.971
REMARK SMILES CC(=O)Nc1sccc1C(=O)N[C@H]1CCC(=O)NC1=O
REMARK SMILES IDX 5 1 6 2 7 3 8 4 9 5 4 6 2 7 3 8 1 9 10 11 11 12 12 13 13 15
REMARK SMILES IDX 14 16 19 17 15 18 18 19 20 20 16 21 17 22
REMARK H PARENT 4 10 12 14 18 23
ROOT
ATOM      1  C   UNL     1     -45.252  57.072 -95.907  1.00  0.00     0.108 A 
ATOM      2  S   UNL     1     -45.417  57.531 -97.534  1.00  0.00    -0.126 S 
ATOM      3  C   UNL     1     -44.432  58.903 -97.324  1.00  0.00     0.068 A 
ATOM      4  C   UNL     1     -43.981  59.015 -96.028  1.00  0.00     0.028 A 
ATOM      5  C   UNL     1     -44.459  57.953 -95.179  1.00  0.00     0.074 A 
ENDROOT
BRANCH   1   6
ATOM      6  N   UNL     1     -45.859  55.927 -95.411  1.00  0.00    -0.317 N 
ATOM      7  C   UNL     1     -45.531  54.612 -95.678  1.00  0.00     0.221 C 
ATOM      8  O   UNL     1     -44.662  54.187 -96.430  1.00  0.00    -0.275 OA
ATOM      9  C   UNL     1     -46.428  53.652 -94.933  1.00  0.00     0.114 C 
ATOM     10  H   UNL     1     -46.638  56.106 -94.778  1.00  0.00     0.170 HD
ENDBRANCH   1   6
BRANCH   5  11
ATOM     11  C   UNL     1     -44.185  57.756 -93.751  1.00  0.00     0.254 C 
ATOM     12  O   UNL     1     -43.985  56.640 -93.272  1.00  0.00    -0.269 OA
ATOM     13  N   UNL     1     -44.182  58.891 -92.976  1.00  0.00    -0.340 N 
ATOM     14  H   UNL     1     -44.578  59.746 -93.352  1.00  0.00     0.164 HD
BRANCH  13  15
ATOM     15  C   UNL     1     -44.073  58.825 -91.526  1.00  0.00     0.172 C 
ATOM     16  C   UNL     1     -42.682  59.210 -91.031  1.00  0.00     0.045 C 
ATOM     17  C   UNL     1     -45.099  59.788 -90.921  1.00  0.00     0.249 C 
ATOM     18  C   UNL     1     -42.655  59.163 -89.510  1.00  0.00     0.103 C 
ATOM     19  N   UNL     1     -44.914  60.116 -89.602  1.00  0.00    -0.295 N 
ATOM     20  O   UNL     1     -46.044  60.240 -91.567  1.00  0.00    -0.272 OA
ATOM     21  C   UNL     1     -43.729  60.042 -88.914  1.00  0.00     0.226 C 
ATOM     22  O   UNL     1     -43.575  60.644 -87.856  1.00  0.00    -0.275 OA
ATOM     23  H   UNL     1     -45.587  60.765 -89.215  1.00  0.00     0.172 HD
ENDBRANCH  13  15
ENDBRANCH   5  11
TORSDOF 3
ENDMDL
MODEL 7
REMARK VINA RESULT:      -5.8      1.943      2.295
REMARK SMILES CC(=O)Nc1sccc1C(=O)N[C@H]1CCC(=O)NC1=O
REMARK SMILES IDX 5 1 6 2 7 3 8 4 9 5 4 6 2 7 3 8 1 9 10 11 11 12 12 13 13 15
REMARK SMILES IDX 14 16 19 17 15 18 18 19 20 20 16 21 17 22
REMARK H PARENT 4 10 12 14 18 23
ROOT
ATOM      1  C   UNL     1     -45.162  60.329 -93.036  1.00  0.00     0.108 A 
ATOM      2  S   UNL     1     -45.715  61.922 -93.232  1.00  0.00    -0.126 S 
ATOM      3  C   UNL     1     -46.799  61.474 -94.467  1.00  0.00     0.068 A 
ATOM      4  C   UNL     1     -46.740  60.124 -94.731  1.00  0.00     0.028 A 
ATOM      5  C   UNL     1     -45.779  59.436 -93.907  1.00  0.00     0.074 A 
ENDROOT
BRANCH   1   6
ATOM      6  N   UNL     1     -44.201  60.006 -92.090  1.00  0.00    -0.317 N 
ATOM      7  C   UNL     1     -42.828  59.986 -92.251  1.00  0.00     0.221 C 
ATOM      8  O   UNL     1     -42.183  60.218 -93.266  1.00  0.00    -0.275 OA
ATOM      9  C   UNL     1     -42.124  59.589 -90.975  1.00  0.00     0.114 C 
ATOM     10  H   UNL     1     -44.578  59.755 -91.176  1.00  0.00     0.170 HD
ENDBRANCH   1   6
BRANCH   5  11
ATOM     11  C   UNL     1     -45.450  58.006 -93.917  1.00  0.00     0.254 C 
ATOM     12  O   UNL     1     -44.972  57.438 -92.936  1.00  0.00    -0.269 OA
ATOM     13  N   UNL     1     -45.692  57.341 -95.097  1.00  0.00    -0.340 N 
ATOM     14  H   UNL     1     -45.858  57.879 -95.940  1.00  0.00     0.164 HD
BRANCH  13  15
ATOM     15  C   UNL     1     -45.275  55.960 -95.293  1.00  0.00     0.172 C 
ATOM     16  C   UNL     1     -46.215  54.969 -94.615  1.00  0.00     0.045 C 
ATOM     17  C   UNL     1     -45.253  55.673 -96.797  1.00  0.00     0.249 C 
ATOM     18  C   UNL     1     -45.746  53.550 -94.900  1.00  0.00     0.103 C 
ATOM     19  N   UNL     1     -45.220  54.350 -97.159  1.00  0.00    -0.295 N 
ATOM     20  O   UNL     1     -45.253  56.568 -97.642  1.00  0.00    -0.272 OA
ATOM     21  C   UNL     1     -45.635  53.295 -96.385  1.00  0.00     0.226 C 
ATOM     22  O   UNL     1     -45.872  52.201 -96.886  1.00  0.00    -0.275 OA
ATOM     23  H   UNL     1     -45.222  54.170 -98.154  1.00  0.00     0.172 HD
ENDBRANCH  13  15
ENDBRANCH   5  11
TORSDOF 3
ENDMDL
MODEL 8
REMARK VINA RESULT:      -5.6      2.786      4.291
REMARK SMILES CC(=O)Nc1sccc1C(=O)N[C@H]1CCC(=O)NC1=O
REMARK SMILES IDX 5 1 6 2 7 3 8 4 9 5 4 6 2 7 3 8 1 9 10 11 11 12 12 13 13 15
REMARK SMILES IDX 14 16 19 17 15 18 18 19 20 20 16 21 17 22
REMARK H PARENT 4 10 12 14 18 23
ROOT
ATOM      1  C   UNL     1     -45.539  60.058 -91.244  1.00  0.00     0.108 A 
ATOM      2  S   UNL     1     -44.626  60.851 -90.052  1.00  0.00    -0.126 S 
ATOM      3  C   UNL     1     -43.571  59.526 -89.873  1.00  0.00     0.068 A 
ATOM      4  C   UNL     1     -43.910  58.488 -90.710  1.00  0.00     0.028 A 
ATOM      5  C   UNL     1     -45.069  58.778 -91.517  1.00  0.00     0.074 A 
ENDROOT
BRANCH   1   6
ATOM      6  N   UNL     1     -46.626  60.670 -91.852  1.00  0.00    -0.317 N 
ATOM      7  C   UNL     1     -47.934  60.707 -91.408  1.00  0.00     0.221 C 
ATOM      8  O   UNL     1     -48.407  60.182 -90.407  1.00  0.00    -0.275 OA
ATOM      9  C   UNL     1     -48.820  61.484 -92.352  1.00  0.00     0.114 C 
ATOM     10  H   UNL     1     -46.406  61.139 -92.731  1.00  0.00     0.170 HD
ENDBRANCH   1   6
BRANCH   5  11
ATOM     11  C   UNL     1     -45.710  57.908 -92.510  1.00  0.00     0.254 C 
ATOM     12  O   UNL     1     -46.892  57.576 -92.423  1.00  0.00    -0.269 OA
ATOM     13  N   UNL     1     -44.905  57.470 -93.536  1.00  0.00    -0.340 N 
ATOM     14  H   UNL     1     -43.899  57.566 -93.449  1.00  0.00     0.164 HD
BRANCH  13  15
ATOM     15  C   UNL     1     -45.370  56.487 -94.503  1.00  0.00     0.172 C 
ATOM     16  C   UNL     1     -45.220  56.972 -95.941  1.00  0.00     0.045 C 
ATOM     17  C   UNL     1     -44.546  55.208 -94.322  1.00  0.00     0.249 C 
ATOM     18  C   UNL     1     -45.679  55.879 -96.895  1.00  0.00     0.103 C 
ATOM     19  N   UNL     1     -44.601  54.304 -95.353  1.00  0.00    -0.295 N 
ATOM     20  O   UNL     1     -43.879  54.987 -93.312  1.00  0.00    -0.272 OA
ATOM     21  C   UNL     1     -44.932  54.589 -96.655  1.00  0.00     0.226 C 
ATOM     22  O   UNL     1     -44.650  53.812 -97.561  1.00  0.00    -0.275 OA
ATOM     23  H   UNL     1     -44.042  53.470 -95.232  1.00  0.00     0.172 HD
ENDBRANCH  13  15
ENDBRANCH   5  11
TORSDOF 3
ENDMDL
MODEL 9
REMARK VINA RESULT:      -5.6      3.116      6.927
REMARK SMILES CC(=O)Nc1sccc1C(=O)N[C@H]1CCC(=O)NC1=O
REMARK SMILES IDX 5 1 6 2 7 3 8 4 9 5 4 6 2 7 3 8 1 9 10 11 11 12 12 13 13 15
REMARK SMILES IDX 14 16 19 17 15 18 18 19 20 20 16 21 17 22
REMARK H PARENT 4 10 12 14 18 23
ROOT
ATOM      1  C   UNL     1     -46.049  58.914 -95.679  1.00  0.00     0.108 A 
ATOM      2  S   UNL     1     -47.173  59.787 -96.605  1.00  0.00    -0.126 S 
ATOM      3  C   UNL     1     -46.602  61.283 -96.025  1.00  0.00     0.068 A 
ATOM      4  C   UNL     1     -45.566  61.122 -95.132  1.00  0.00     0.028 A 
ATOM      5  C   UNL     1     -45.233  59.737 -94.909  1.00  0.00     0.074 A 
ENDROOT
BRANCH   1   6
ATOM      6  N   UNL     1     -45.990  57.529 -95.727  1.00  0.00    -0.317 N 
ATOM      7  C   UNL     1     -46.647  56.626 -94.914  1.00  0.00     0.221 C 
ATOM      8  O   UNL     1     -47.390  56.861 -93.968  1.00  0.00    -0.275 OA
ATOM      9  C   UNL     1     -46.326  55.199 -95.293  1.00  0.00     0.114 C 
ATOM     10  H   UNL     1     -45.379  57.159 -96.455  1.00  0.00     0.170 HD
ENDBRANCH   1   6
BRANCH   5  11
ATOM     11  C   UNL     1     -44.192  59.197 -94.027  1.00  0.00     0.254 C 
ATOM     12  O   UNL     1     -43.460  58.270 -94.371  1.00  0.00    -0.269 OA
ATOM     13  N   UNL     1     -44.097  59.777 -92.784  1.00  0.00    -0.340 N 
ATOM     14  H   UNL     1     -44.855  60.364 -92.454  1.00  0.00     0.164 HD
BRANCH  13  15
ATOM     15  C   UNL     1     -43.213  59.243 -91.759  1.00  0.00     0.172 C 
ATOM     16  C   UNL     1     -42.058  60.187 -91.438  1.00  0.00     0.045 C 
ATOM     17  C   UNL     1     -44.034  59.013 -90.486  1.00  0.00     0.249 C 
ATOM     18  C   UNL     1     -41.206  59.587 -90.330  1.00  0.00     0.103 C 
ATOM     19  N   UNL     1     -43.319  58.842 -89.329  1.00  0.00    -0.295 N 
ATOM     20  O   UNL     1     -45.264  58.972 -90.491  1.00  0.00    -0.272 OA
ATOM     21  C   UNL     1     -42.035  59.273 -89.106  1.00  0.00     0.226 C 
ATOM     22  O   UNL     1     -41.590  59.369 -87.967  1.00  0.00    -0.275 OA
ATOM     23  H   UNL     1     -43.870  58.707 -88.491  1.00  0.00     0.172 HD
ENDBRANCH  13  15
ENDBRANCH   5  11
TORSDOF 3
ENDMDL
MODEL 10
REMARK VINA RESULT:      -5.5      3.219      4.580
REMARK SMILES CC(=O)Nc1sccc1C(=O)N[C@H]1CCC(=O)NC1=O
REMARK SMILES IDX 5 1 6 2 7 3 8 4 9 5 4 6 2 7 3 8 1 9 10 11 11 12 12 13 13 15
REMARK SMILES IDX 14 16 19 17 15 18 18 19 20 20 16 21 17 22
REMARK H PARENT 4 10 12 14 18 23
ROOT
ATOM      1  C   UNL     1     -47.704  60.190 -93.599  1.00  0.00     0.108 A 
ATOM      2  S   UNL     1     -48.727  61.267 -92.777  1.00  0.00    -0.126 S 
ATOM      3  C   UNL     1     -48.362  60.578 -91.264  1.00  0.00     0.068 A 
ATOM      4  C   UNL     1     -47.471  59.534 -91.381  1.00  0.00     0.028 A 
ATOM      5  C   UNL     1     -47.080  59.286 -92.745  1.00  0.00     0.074 A 
ENDROOT
BRANCH   1   6
ATOM      6  N   UNL     1     -47.541  60.251 -94.975  1.00  0.00    -0.317 N 
ATOM      7  C   UNL     1     -48.504  60.077 -95.951  1.00  0.00     0.221 C 
ATOM      8  O   UNL     1     -49.688  59.801 -95.802  1.00  0.00    -0.275 OA
ATOM      9  C   UNL     1     -47.926  60.231 -97.337  1.00  0.00     0.114 C 
ATOM     10  H   UNL     1     -46.586  60.448 -95.276  1.00  0.00     0.170 HD
ENDBRANCH   1   6
BRANCH   5  11
ATOM     11  C   UNL     1     -46.156  58.258 -93.240  1.00  0.00     0.254 C 
ATOM     12  O   UNL     1     -44.955  58.276 -92.973  1.00  0.00    -0.269 OA
ATOM     13  N   UNL     1     -46.711  57.282 -94.034  1.00  0.00    -0.340 N 
ATOM     14  H   UNL     1     -47.637  57.429 -94.421  1.00  0.00     0.164 HD
BRANCH  13  15
ATOM     15  C   UNL     1     -45.888  56.291 -94.711  1.00  0.00     0.172 C 
ATOM     16  C   UNL     1     -46.584  54.939 -94.825  1.00  0.00     0.045 C 
ATOM     17  C   UNL     1     -45.572  56.807 -96.119  1.00  0.00     0.249 C 
ATOM     18  C   UNL     1     -45.688  53.970 -95.582  1.00  0.00     0.103 C 
ATOM     19  N   UNL     1     -45.106  55.876 -97.012  1.00  0.00    -0.295 N 
ATOM     20  O   UNL     1     -45.715  57.987 -96.438  1.00  0.00    -0.272 OA
ATOM     21  C   UNL     1     -45.300  54.520 -96.934  1.00  0.00     0.226 C 
ATOM     22  O   UNL     1     -45.137  53.802 -97.915  1.00  0.00    -0.275 OA
ATOM     23  H   UNL     1     -44.916  56.223 -97.944  1.00  0.00     0.172 HD
ENDBRANCH  13  15
ENDBRANCH   5  11
TORSDOF 3
ENDMDL
