MODEL 1
REMARK minimizedAffinity -6.34510422
REMARK CNNscore 0.208276272
REMARK CNNaffinity 5.63047934
REMARK SMILES CC(C)(C)c1cc(NC(=O)Nc2cccc3ccccc23)n(-c2cccc(C(=O)N(CCN)CCO)c2)n1
REMARK SMILES IDX 28 1 29 2 27 3 23 4 24 5 37 6 25 7 26 8 22 9 5 10 6 11 38 12
REMARK SMILES IDX 7 13 2 14 1 15 3 16 4 17 8 18 9 19 10 20 11 21 12 24 13 25
REMARK SMILES IDX 21 26 14 27 20 28 16 29 15 30 19 31 17 32 18 33 30 34 31 35
REMARK SMILES IDX 32 36 33 37 34 40 35 41 36 42
REMARK H PARENT 8 22 11 23 33 38 33 39 36 43
ROOT
ATOM      1  C   UNL     1      11.302 121.164  -9.700  1.00  0.00     0.254 C 
ATOM      2  O   UNL     1      11.585 121.559  -8.572  1.00  0.00    -0.269 OA
ENDROOT
BRANCH   1   3
ATOM      3  C   UNL     1      10.964 122.193 -10.707  1.00  0.00     0.042 A 
ATOM      4  C   UNL     1      11.558 124.143 -12.020  1.00  0.00     0.068 A 
ATOM      5  C   UNL     1      10.267 124.155 -12.568  1.00  0.00     0.028 A 
ATOM      6  C   UNL     1      11.906 123.152 -11.088  1.00  0.00     0.042 A 
ATOM      7  C   UNL     1       9.322 123.209 -12.157  1.00  0.00     0.003 A 
ATOM      8  C   UNL     1       9.664 122.237 -11.219  1.00  0.00     0.014 A 
BRANCH   4   9
ATOM      9  N   UNL     1      12.554 125.074 -12.433  1.00  0.00    -0.217 N 
ATOM     10  C   UNL     1      14.252 125.695 -13.581  1.00  0.00     0.070 A 
ATOM     11  C   UNL     1      13.606 126.874 -13.137  1.00  0.00     0.073 A 
ATOM     12  N   UNL     1      13.655 124.610 -13.076  1.00  0.00    -0.170 NA
ATOM     13  C   UNL     1      12.577 126.462 -12.317  1.00  0.00     0.138 A 
BRANCH  10  14
ATOM     14  C   UNL     1      15.499 125.560 -14.441  1.00  0.00     0.006 C 
ATOM     15  C   UNL     1      16.331 126.854 -14.346  1.00  0.00     0.017 C 
ATOM     16  C   UNL     1      15.139 125.314 -15.921  1.00  0.00     0.017 C 
ATOM     17  C   UNL     1      16.370 124.374 -13.973  1.00  0.00     0.017 C 
ENDBRANCH  10  14
BRANCH  13  18
ATOM     18  N   UNL     1      11.730 127.190 -11.484  1.00  0.00    -0.292 N 
ATOM     19  C   UNL     1      10.470 127.635 -11.870  1.00  0.00     0.324 C 
ATOM     20  O   UNL     1       9.960 127.425 -12.962  1.00  0.00    -0.248 OA
ATOM     21  N   UNL     1       9.875 128.328 -10.822  1.00  0.00    -0.307 N 
ATOM     22  H   UNL     1      12.142 127.627 -10.672  1.00  0.00     0.173 HD
ATOM     23  H   UNL     1      10.296 128.174  -9.923  1.00  0.00     0.171 HD
BRANCH  21  24
ATOM     24  C   UNL     1       8.648 129.043 -10.828  1.00  0.00     0.050 A 
ATOM     25  C   UNL     1       7.492 128.496 -10.255  1.00  0.00     0.027 A 
ATOM     26  C   UNL     1       8.584 130.332 -11.454  1.00  0.00     0.005 A 
ATOM     27  C   UNL     1       6.287 129.191 -10.268  1.00  0.00     0.003 A 
ATOM     28  C   UNL     1       9.675 130.990 -12.083  1.00  0.00     0.011 A 
ATOM     29  C   UNL     1       7.342 131.024 -11.454  1.00  0.00    -0.016 A 
ATOM     30  C   UNL     1       6.214 130.445 -10.859  1.00  0.00     0.009 A 
ATOM     31  C   UNL     1       9.547 132.252 -12.672  1.00  0.00     0.001 A 
ATOM     32  C   UNL     1       7.228 132.291 -12.049  1.00  0.00     0.009 A 
ATOM     33  C   UNL     1       8.322 132.902 -12.654  1.00  0.00     0.001 A 
ENDBRANCH  21  24
ENDBRANCH  13  18
ENDBRANCH   4   9
ENDBRANCH   1   3
BRANCH   1  34
ATOM     34  N   UNL     1      11.286 119.815 -10.063  1.00  0.00    -0.335 N 
BRANCH  34  35
ATOM     35  C   UNL     1      10.994 118.845  -9.003  1.00  0.00     0.135 C 
BRANCH  35  36
ATOM     36  C   UNL     1      11.839 117.566  -9.140  1.00  0.00     0.099 C 
BRANCH  36  37
ATOM     37  N   UNL     1      13.274 117.852  -9.067  1.00  0.00    -0.329 NA
ATOM     38  H   UNL     1      13.534 118.437  -9.862  1.00  0.00     0.118 HD
ATOM     39  H   UNL     1      13.788 116.978  -9.191  1.00  0.00     0.118 HD
ENDBRANCH  36  37
ENDBRANCH  35  36
ENDBRANCH  34  35
BRANCH  34  40
ATOM     40  C   UNL     1      11.183 119.331 -11.444  1.00  0.00     0.148 C 
BRANCH  40  41
ATOM     41  C   UNL     1      12.525 119.377 -12.187  1.00  0.00     0.177 C 
BRANCH  41  42
ATOM     42  O   UNL     1      13.082 118.073 -12.302  1.00  0.00    -0.395 OA
ATOM     43  H   UNL     1      13.279 117.754 -11.404  1.00  0.00     0.210 HD
ENDBRANCH  41  42
ENDBRANCH  40  41
ENDBRANCH  34  40
ENDBRANCH   1  34
TORSDOF 12
ENDMDL
MODEL 2
REMARK minimizedAffinity -6.51239729
REMARK CNNscore 0.191728339
REMARK CNNaffinity 5.62328768
REMARK SMILES CC(C)(C)c1cc(NC(=O)Nc2cccc3ccccc23)n(-c2cccc(C(=O)N(CCN)CCO)c2)n1
REMARK SMILES IDX 28 1 29 2 27 3 23 4 24 5 37 6 25 7 26 8 22 9 5 10 6 11 38 12
REMARK SMILES IDX 7 13 2 14 1 15 3 16 4 17 8 18 9 19 10 20 11 21 12 24 13 25
REMARK SMILES IDX 21 26 14 27 20 28 16 29 15 30 19 31 17 32 18 33 30 34 31 35
REMARK SMILES IDX 32 36 33 37 34 40 35 41 36 42
REMARK H PARENT 8 22 11 23 33 38 33 39 36 43
ROOT
ATOM      1  C   UNL     1      10.262 121.495 -10.717  1.00  0.00     0.254 C 
ATOM      2  O   UNL     1       9.894 121.666  -9.556  1.00  0.00    -0.269 OA
ENDROOT
BRANCH   1   3
ATOM      3  C   UNL     1      10.353 122.694 -11.576  1.00  0.00     0.042 A 
ATOM      4  C   UNL     1      11.621 124.543 -12.499  1.00  0.00     0.068 A 
ATOM      5  C   UNL     1      10.468 124.989 -13.162  1.00  0.00     0.028 A 
ATOM      6  C   UNL     1      11.560 123.387 -11.707  1.00  0.00     0.042 A 
ATOM      7  C   UNL     1       9.258 124.307 -13.002  1.00  0.00     0.003 A 
ATOM      8  C   UNL     1       9.196 123.169 -12.199  1.00  0.00     0.014 A 
BRANCH   4   9
ATOM      9  N   UNL     1      12.877 125.198 -12.661  1.00  0.00    -0.217 N 
ATOM     10  C   UNL     1      14.710 125.622 -13.682  1.00  0.00     0.070 A 
ATOM     11  C   UNL     1      14.477 126.702 -12.797  1.00  0.00     0.073 A 
ATOM     12  N   UNL     1      13.779 124.674 -13.529  1.00  0.00    -0.170 NA
ATOM     13  C   UNL     1      13.350 126.369 -12.074  1.00  0.00     0.138 A 
BRANCH  10  14
ATOM     14  C   UNL     1      15.862 125.420 -14.653  1.00  0.00     0.006 C 
ATOM     15  C   UNL     1      16.710 126.705 -14.719  1.00  0.00     0.017 C 
ATOM     16  C   UNL     1      15.354 125.093 -16.073  1.00  0.00     0.017 C 
ATOM     17  C   UNL     1      16.767 124.252 -14.206  1.00  0.00     0.017 C 
ENDBRANCH  10  14
BRANCH  13  18
ATOM     18  N   UNL     1      12.771 126.976 -10.963  1.00  0.00    -0.292 N 
ATOM     19  C   UNL     1      11.905 128.063 -11.045  1.00  0.00     0.324 C 
ATOM     20  O   UNL     1      11.545 128.589 -12.089  1.00  0.00    -0.248 OA
ATOM     21  N   UNL     1      11.499 128.437  -9.770  1.00  0.00    -0.307 N 
ATOM     22  H   UNL     1      13.188 126.790 -10.063  1.00  0.00     0.173 HD
ATOM     23  H   UNL     1      11.656 127.746  -9.058  1.00  0.00     0.171 HD
BRANCH  21  24
ATOM     24  C   UNL     1      10.715 129.560  -9.394  1.00  0.00     0.050 A 
ATOM     25  C   UNL     1      11.288 130.645  -8.714  1.00  0.00     0.027 A 
ATOM     26  C   UNL     1       9.312 129.573  -9.689  1.00  0.00     0.005 A 
ATOM     27  C   UNL     1      10.519 131.741  -8.337  1.00  0.00     0.003 A 
ATOM     28  C   UNL     1       8.607 128.534 -10.356  1.00  0.00     0.011 A 
ATOM     29  C   UNL     1       8.547 130.705  -9.295  1.00  0.00    -0.016 A 
ATOM     30  C   UNL     1       9.161 131.772  -8.628  1.00  0.00     0.009 A 
ATOM     31  C   UNL     1       7.236 128.612 -10.618  1.00  0.00     0.001 A 
ATOM     32  C   UNL     1       7.170 130.769  -9.565  1.00  0.00     0.009 A 
ATOM     33  C   UNL     1       6.518 129.730 -10.223  1.00  0.00     0.001 A 
ENDBRANCH  21  24
ENDBRANCH  13  18
ENDBRANCH   4   9
ENDBRANCH   1   3
BRANCH   1  34
ATOM     34  N   UNL     1      10.590 120.244 -11.244  1.00  0.00    -0.335 N 
BRANCH  34  35
ATOM     35  C   UNL     1      11.894 119.685 -10.871  1.00  0.00     0.135 C 
BRANCH  35  36
ATOM     36  C   UNL     1      11.790 118.214 -10.436  1.00  0.00     0.099 C 
BRANCH  36  37
ATOM     37  N   UNL     1      12.608 117.937  -9.252  1.00  0.00    -0.329 NA
ATOM     38  H   UNL     1      13.590 118.083  -9.488  1.00  0.00     0.118 HD
ATOM     39  H   UNL     1      12.525 116.945  -9.022  1.00  0.00     0.118 HD
ENDBRANCH  36  37
ENDBRANCH  35  36
ENDBRANCH  34  35
BRANCH  34  40
ATOM     40  C   UNL     1       9.619 119.312 -11.829  1.00  0.00     0.148 C 
BRANCH  40  41
ATOM     41  C   UNL     1       9.392 119.559 -13.326  1.00  0.00     0.177 C 
BRANCH  41  42
ATOM     42  O   UNL     1       9.978 118.521 -14.102  1.00  0.00    -0.395 OA
ATOM     43  H   UNL     1      10.941 118.553 -13.964  1.00  0.00     0.210 HD
ENDBRANCH  41  42
ENDBRANCH  40  41
ENDBRANCH  34  40
ENDBRANCH   1  34
TORSDOF 12
ENDMDL
MODEL 3
REMARK minimizedAffinity -7.27455568
REMARK CNNscore 0.187271923
REMARK CNNaffinity 6.3482666
REMARK SMILES CC(C)(C)c1cc(NC(=O)Nc2cccc3ccccc23)n(-c2cccc(C(=O)N(CCN)CCO)c2)n1
REMARK SMILES IDX 28 1 29 2 27 3 23 4 24 5 37 6 25 7 26 8 22 9 5 10 6 11 38 12
REMARK SMILES IDX 7 13 2 14 1 15 3 16 4 17 8 18 9 19 10 20 11 21 12 24 13 25
REMARK SMILES IDX 21 26 14 27 20 28 16 29 15 30 19 31 17 32 18 33 30 34 31 35
REMARK SMILES IDX 32 36 33 37 34 40 35 41 36 42
REMARK H PARENT 8 22 11 23 33 38 33 39 36 43
ROOT
ATOM      1  C   UNL     1      27.337 137.153   2.419  1.00  0.00     0.254 C 
ATOM      2  O   UNL     1      26.196 137.598   2.308  1.00  0.00    -0.269 OA
ENDROOT
BRANCH   1   3
ATOM      3  C   UNL     1      27.828 136.900   3.790  1.00  0.00     0.042 A 
ATOM      4  C   UNL     1      28.168 135.411   5.674  1.00  0.00     0.068 A 
ATOM      5  C   UNL     1      28.714 136.477   6.404  1.00  0.00     0.028 A 
ATOM      6  C   UNL     1      27.728 135.627   4.358  1.00  0.00     0.042 A 
ATOM      7  C   UNL     1      28.782 137.754   5.838  1.00  0.00     0.003 A 
ATOM      8  C   UNL     1      28.328 137.970   4.538  1.00  0.00     0.014 A 
BRANCH   4   9
ATOM      9  N   UNL     1      28.107 134.092   6.208  1.00  0.00    -0.217 N 
ATOM     10  C   UNL     1      28.936 132.195   6.755  1.00  0.00     0.070 A 
ATOM     11  C   UNL     1      27.739 132.345   7.495  1.00  0.00     0.073 A 
ATOM     12  N   UNL     1      29.105 133.221   5.913  1.00  0.00    -0.170 NA
ATOM     13  C   UNL     1      27.163 133.521   7.060  1.00  0.00     0.138 A 
BRANCH  10  14
ATOM     14  C   UNL     1      29.924 131.039   6.769  1.00  0.00     0.006 C 
ATOM     15  C   UNL     1      31.179 131.426   5.961  1.00  0.00     0.017 C 
ATOM     16  C   UNL     1      29.313 129.766   6.148  1.00  0.00     0.017 C 
ATOM     17  C   UNL     1      30.351 130.691   8.211  1.00  0.00     0.017 C 
ENDBRANCH  10  14
BRANCH  13  18
ATOM     18  N   UNL     1      25.910 134.070   7.318  1.00  0.00    -0.292 N 
ATOM     19  C   UNL     1      25.486 134.452   8.587  1.00  0.00     0.324 C 
ATOM     20  O   UNL     1      26.162 134.369   9.602  1.00  0.00    -0.248 OA
ATOM     21  N   UNL     1      24.194 134.961   8.516  1.00  0.00    -0.307 N 
ATOM     22  H   UNL     1      25.197 133.949   6.613  1.00  0.00     0.173 HD
ATOM     23  H   UNL     1      23.892 135.217   7.593  1.00  0.00     0.171 HD
BRANCH  21  24
ATOM     24  C   UNL     1      23.347 135.355   9.586  1.00  0.00     0.050 A 
ATOM     25  C   UNL     1      22.287 134.539  10.004  1.00  0.00     0.027 A 
ATOM     26  C   UNL     1      23.563 136.618  10.230  1.00  0.00     0.005 A 
ATOM     27  C   UNL     1      21.451 134.927  11.046  1.00  0.00     0.003 A 
ATOM     28  C   UNL     1      24.588 137.543   9.893  1.00  0.00     0.011 A 
ATOM     29  C   UNL     1      22.696 136.993  11.293  1.00  0.00    -0.016 A 
ATOM     30  C   UNL     1      21.656 136.142  11.687  1.00  0.00     0.009 A 
ATOM     31  C   UNL     1      24.747 138.759  10.565  1.00  0.00     0.001 A 
ATOM     32  C   UNL     1      22.868 138.218  11.959  1.00  0.00     0.009 A 
ATOM     33  C   UNL     1      23.887 139.095  11.599  1.00  0.00     0.001 A 
ENDBRANCH  21  24
ENDBRANCH  13  18
ENDBRANCH   4   9
ENDBRANCH   1   3
BRANCH   1  34
ATOM     34  N   UNL     1      28.168 136.884   1.329  1.00  0.00    -0.335 N 
BRANCH  34  35
ATOM     35  C   UNL     1      27.634 137.181  -0.004  1.00  0.00     0.135 C 
BRANCH  35  36
ATOM     36  C   UNL     1      27.912 138.633  -0.429  1.00  0.00     0.099 C 
BRANCH  36  37
ATOM     37  N   UNL     1      27.334 139.596   0.512  1.00  0.00    -0.329 NA
ATOM     38  H   UNL     1      26.317 139.498   0.501  1.00  0.00     0.118 HD
ATOM     39  H   UNL     1      27.522 140.539   0.171  1.00  0.00     0.118 HD
ENDBRANCH  36  37
ENDBRANCH  35  36
ENDBRANCH  34  35
BRANCH  34  40
ATOM     40  C   UNL     1      29.617 136.676   1.426  1.00  0.00     0.148 C 
BRANCH  40  41
ATOM     41  C   UNL     1      30.404 137.529   0.424  1.00  0.00     0.177 C 
BRANCH  41  42
ATOM     42  O   UNL     1      30.992 136.712  -0.582  1.00  0.00    -0.395 OA
ATOM     43  H   UNL     1      31.642 136.130  -0.150  1.00  0.00     0.210 HD
ENDBRANCH  41  42
ENDBRANCH  40  41
ENDBRANCH  34  40
ENDBRANCH   1  34
TORSDOF 12
ENDMDL
MODEL 4
REMARK minimizedAffinity -6.98063231
REMARK CNNscore 0.152665392
REMARK CNNaffinity 5.8224144
REMARK SMILES CC(C)(C)c1cc(NC(=O)Nc2cccc3ccccc23)n(-c2cccc(C(=O)N(CCN)CCO)c2)n1
REMARK SMILES IDX 28 1 29 2 27 3 23 4 24 5 37 6 25 7 26 8 22 9 5 10 6 11 38 12
REMARK SMILES IDX 7 13 2 14 1 15 3 16 4 17 8 18 9 19 10 20 11 21 12 24 13 25
REMARK SMILES IDX 21 26 14 27 20 28 16 29 15 30 19 31 17 32 18 33 30 34 31 35
REMARK SMILES IDX 32 36 33 37 34 40 35 41 36 42
REMARK H PARENT 8 22 11 23 33 38 33 39 36 43
ROOT
ATOM      1  C   UNL     1      22.685 135.718  11.984  1.00  0.00     0.254 C 
ATOM      2  O   UNL     1      21.495 135.950  11.781  1.00  0.00    -0.269 OA
ENDROOT
BRANCH   1   3
ATOM      3  C   UNL     1      23.049 135.182  13.312  1.00  0.00     0.042 A 
ATOM      4  C   UNL     1      23.719 135.519  15.618  1.00  0.00     0.068 A 
ATOM      5  C   UNL     1      23.789 134.129  15.790  1.00  0.00     0.028 A 
ATOM      6  C   UNL     1      23.342 136.044  14.372  1.00  0.00     0.042 A 
ATOM      7  C   UNL     1      23.523 133.274  14.715  1.00  0.00     0.003 A 
ATOM      8  C   UNL     1      23.166 133.799  13.474  1.00  0.00     0.014 A 
BRANCH   4   9
ATOM      9  N   UNL     1      23.958 136.418  16.697  1.00  0.00    -0.217 N 
ATOM     10  C   UNL     1      25.192 137.428  18.125  1.00  0.00     0.070 A 
ATOM     11  C   UNL     1      24.001 138.184  18.009  1.00  0.00     0.073 A 
ATOM     12  N   UNL     1      25.119 136.313  17.390  1.00  0.00    -0.170 NA
ATOM     13  C   UNL     1      23.175 137.471  17.166  1.00  0.00     0.138 A 
BRANCH  10  14
ATOM     14  C   UNL     1      26.411 137.701  18.992  1.00  0.00     0.006 C 
ATOM     15  C   UNL     1      26.198 137.083  20.388  1.00  0.00     0.017 C 
ATOM     16  C   UNL     1      26.658 139.215  19.157  1.00  0.00     0.017 C 
ATOM     17  C   UNL     1      27.685 137.090  18.369  1.00  0.00     0.017 C 
ENDBRANCH  10  14
BRANCH  13  18
ATOM     18  N   UNL     1      21.834 137.656  16.836  1.00  0.00    -0.292 N 
ATOM     19  C   UNL     1      20.852 137.981  17.766  1.00  0.00     0.324 C 
ATOM     20  O   UNL     1      21.054 138.159  18.959  1.00  0.00    -0.248 OA
ATOM     21  N   UNL     1      19.622 138.096  17.129  1.00  0.00    -0.307 N 
ATOM     22  H   UNL     1      21.522 137.292  15.947  1.00  0.00     0.173 HD
ATOM     23  H   UNL     1      19.672 138.196  16.131  1.00  0.00     0.171 HD
BRANCH  21  24
ATOM     24  C   UNL     1      18.346 138.299  17.718  1.00  0.00     0.050 A 
ATOM     25  C   UNL     1      17.884 139.590  18.011  1.00  0.00     0.027 A 
ATOM     26  C   UNL     1      17.529 137.166  18.043  1.00  0.00     0.005 A 
ATOM     27  C   UNL     1      16.637 139.790  18.596  1.00  0.00     0.003 A 
ATOM     28  C   UNL     1      17.886 135.809  17.815  1.00  0.00     0.011 A 
ATOM     29  C   UNL     1      16.259 137.395  18.640  1.00  0.00    -0.016 A 
ATOM     30  C   UNL     1      15.831 138.702  18.904  1.00  0.00     0.009 A 
ATOM     31  C   UNL     1      17.039 134.749  18.151  1.00  0.00     0.001 A 
ATOM     32  C   UNL     1      15.419 136.320  18.973  1.00  0.00     0.009 A 
ATOM     33  C   UNL     1      15.805 135.005  18.730  1.00  0.00     0.001 A 
ENDBRANCH  21  24
ENDBRANCH  13  18
ENDBRANCH   4   9
ENDBRANCH   1   3
BRANCH   1  34
ATOM     34  N   UNL     1      23.684 135.936  11.032  1.00  0.00    -0.335 N 
BRANCH  34  35
ATOM     35  C   UNL     1      23.414 135.475   9.666  1.00  0.00     0.135 C 
BRANCH  35  36
ATOM     36  C   UNL     1      24.707 135.142   8.902  1.00  0.00     0.099 C 
BRANCH  36  37
ATOM     37  N   UNL     1      24.665 135.631   7.521  1.00  0.00    -0.329 NA
ATOM     38  H   UNL     1      23.919 135.143   7.022  1.00  0.00     0.118 HD
ATOM     39  H   UNL     1      25.531 135.361   7.052  1.00  0.00     0.118 HD
ENDBRANCH  36  37
ENDBRANCH  35  36
ENDBRANCH  34  35
BRANCH  34  40
ATOM     40  C   UNL     1      24.795 136.880  11.200  1.00  0.00     0.148 C 
BRANCH  40  41
ATOM     41  C   UNL     1      24.347 138.343  11.093  1.00  0.00     0.177 C 
BRANCH  41  42
ATOM     42  O   UNL     1      25.281 139.101  10.333  1.00  0.00    -0.395 OA
ATOM     43  H   UNL     1      26.123 139.109  10.820  1.00  0.00     0.210 HD
ENDBRANCH  41  42
ENDBRANCH  40  41
ENDBRANCH  34  40
ENDBRANCH   1  34
TORSDOF 12
ENDMDL
MODEL 5
REMARK minimizedAffinity -8.36858749
REMARK CNNscore 0.142132401
REMARK CNNaffinity 6.03569031
REMARK SMILES CC(C)(C)c1cc(NC(=O)Nc2cccc3ccccc23)n(-c2cccc(C(=O)N(CCN)CCO)c2)n1
REMARK SMILES IDX 28 1 29 2 27 3 23 4 24 5 37 6 25 7 26 8 22 9 5 10 6 11 38 12
REMARK SMILES IDX 7 13 2 14 1 15 3 16 4 17 8 18 9 19 10 20 11 21 12 24 13 25
REMARK SMILES IDX 21 26 14 27 20 28 16 29 15 30 19 31 17 32 18 33 30 34 31 35
REMARK SMILES IDX 32 36 33 37 34 40 35 41 36 42
REMARK H PARENT 8 22 11 23 33 38 33 39 36 43
ROOT
ATOM      1  C   UNL     1      22.901 134.986  10.274  1.00  0.00     0.254 C 
ATOM      2  O   UNL     1      22.168 134.474   9.431  1.00  0.00    -0.269 OA
ENDROOT
BRANCH   1   3
ATOM      3  C   UNL     1      24.169 135.575   9.794  1.00  0.00     0.042 A 
ATOM      4  C   UNL     1      26.287 135.374   8.631  1.00  0.00     0.068 A 
ATOM      5  C   UNL     1      26.581 136.706   8.958  1.00  0.00     0.028 A 
ATOM      6  C   UNL     1      25.072 134.810   9.050  1.00  0.00     0.042 A 
ATOM      7  C   UNL     1      25.684 137.454   9.728  1.00  0.00     0.003 A 
ATOM      8  C   UNL     1      24.486 136.886  10.158  1.00  0.00     0.014 A 
BRANCH   4   9
ATOM      9  N   UNL     1      27.164 134.591   7.826  1.00  0.00    -0.217 N 
ATOM     10  C   UNL     1      28.435 132.914   7.434  1.00  0.00     0.070 A 
ATOM     11  C   UNL     1      28.068 133.449   6.176  1.00  0.00     0.073 A 
ATOM     12  N   UNL     1      27.952 133.666   8.429  1.00  0.00    -0.170 NA
ATOM     13  C   UNL     1      27.334 134.587   6.443  1.00  0.00     0.138 A 
BRANCH  10  14
ATOM     14  C   UNL     1      29.316 131.711   7.734  1.00  0.00     0.006 C 
ATOM     15  C   UNL     1      30.384 132.104   8.773  1.00  0.00     0.017 C 
ATOM     16  C   UNL     1      30.029 131.202   6.464  1.00  0.00     0.017 C 
ATOM     17  C   UNL     1      28.483 130.539   8.298  1.00  0.00     0.017 C 
ENDBRANCH  10  14
BRANCH  13  18
ATOM     18  N   UNL     1      26.869 135.589   5.596  1.00  0.00    -0.292 N 
ATOM     19  C   UNL     1      26.882 135.488   4.208  1.00  0.00     0.324 C 
ATOM     20  O   UNL     1      27.280 134.515   3.583  1.00  0.00    -0.248 OA
ATOM     21  N   UNL     1      26.354 136.646   3.648  1.00  0.00    -0.307 N 
ATOM     22  H   UNL     1      26.759 136.513   5.987  1.00  0.00     0.173 HD
ATOM     23  H   UNL     1      25.826 137.218   4.283  1.00  0.00     0.171 HD
BRANCH  21  24
ATOM     24  C   UNL     1      26.289 137.005   2.275  1.00  0.00     0.050 A 
ATOM     25  C   UNL     1      25.492 136.282   1.377  1.00  0.00     0.027 A 
ATOM     26  C   UNL     1      27.073 138.107   1.796  1.00  0.00     0.005 A 
ATOM     27  C   UNL     1      25.435 136.628   0.031  1.00  0.00     0.003 A 
ATOM     28  C   UNL     1      27.932 138.909   2.596  1.00  0.00     0.011 A 
ATOM     29  C   UNL     1      26.997 138.442   0.416  1.00  0.00    -0.016 A 
ATOM     30  C   UNL     1      26.179 137.700  -0.444  1.00  0.00     0.009 A 
ATOM     31  C   UNL     1      28.665 139.974   2.066  1.00  0.00     0.001 A 
ATOM     32  C   UNL     1      27.741 139.515  -0.102  1.00  0.00     0.009 A 
ATOM     33  C   UNL     1      28.569 140.277   0.716  1.00  0.00     0.001 A 
ENDBRANCH  21  24
ENDBRANCH  13  18
ENDBRANCH   4   9
ENDBRANCH   1   3
BRANCH   1  34
ATOM     34  N   UNL     1      22.591 135.035  11.636  1.00  0.00    -0.335 N 
BRANCH  34  35
ATOM     35  C   UNL     1      23.695 134.822  12.578  1.00  0.00     0.135 C 
BRANCH  35  36
ATOM     36  C   UNL     1      23.251 134.031  13.820  1.00  0.00     0.099 C 
BRANCH  36  37
ATOM     37  N   UNL     1      24.388 133.662  14.666  1.00  0.00    -0.329 NA
ATOM     38  H   UNL     1      24.997 133.030  14.144  1.00  0.00     0.118 HD
ATOM     39  H   UNL     1      24.044 133.118  15.459  1.00  0.00     0.118 HD
ENDBRANCH  36  37
ENDBRANCH  35  36
ENDBRANCH  34  35
BRANCH  34  40
ATOM     40  C   UNL     1      21.363 135.622  12.184  1.00  0.00     0.148 C 
BRANCH  40  41
ATOM     41  C   UNL     1      21.315 137.147  12.023  1.00  0.00     0.177 C 
BRANCH  41  42
ATOM     42  O   UNL     1      20.012 137.642  12.307  1.00  0.00    -0.395 OA
ATOM     43  H   UNL     1      19.403 137.278  11.639  1.00  0.00     0.210 HD
ENDBRANCH  41  42
ENDBRANCH  40  41
ENDBRANCH  34  40
ENDBRANCH   1  34
TORSDOF 12
ENDMDL
MODEL 6
REMARK minimizedAffinity -6.77059603
REMARK CNNscore 0.137991279
REMARK CNNaffinity 4.91441679
REMARK SMILES CC(C)(C)c1cc(NC(=O)Nc2cccc3ccccc23)n(-c2cccc(C(=O)N(CCN)CCO)c2)n1
REMARK SMILES IDX 28 1 29 2 27 3 23 4 24 5 37 6 25 7 26 8 22 9 5 10 6 11 38 12
REMARK SMILES IDX 7 13 2 14 1 15 3 16 4 17 8 18 9 19 10 20 11 21 12 24 13 25
REMARK SMILES IDX 21 26 14 27 20 28 16 29 15 30 19 31 17 32 18 33 30 34 31 35
REMARK SMILES IDX 32 36 33 37 34 40 35 41 36 42
REMARK H PARENT 8 22 11 23 33 38 33 39 36 43
ROOT
ATOM      1  C   UNL     1      10.660 121.951 -10.612  1.00  0.00     0.254 C 
ATOM      2  O   UNL     1       9.505 122.312 -10.828  1.00  0.00    -0.269 OA
ENDROOT
BRANCH   1   3
ATOM      3  C   UNL     1      11.646 123.006 -10.297  1.00  0.00     0.042 A 
ATOM      4  C   UNL     1      13.274 124.659 -11.002  1.00  0.00     0.068 A 
ATOM      5  C   UNL     1      13.545 124.951  -9.657  1.00  0.00     0.028 A 
ATOM      6  C   UNL     1      12.316 123.684 -11.319  1.00  0.00     0.042 A 
ATOM      7  C   UNL     1      12.891 124.247  -8.640  1.00  0.00     0.003 A 
ATOM      8  C   UNL     1      11.953 123.266  -8.958  1.00  0.00     0.014 A 
BRANCH   4   9
ATOM      9  N   UNL     1      13.901 125.374 -12.063  1.00  0.00    -0.217 N 
ATOM     10  C   UNL     1      15.025 125.533 -13.878  1.00  0.00     0.070 A 
ATOM     11  C   UNL     1      14.324 126.753 -13.725  1.00  0.00     0.073 A 
ATOM     12  N   UNL     1      14.830 124.738 -12.820  1.00  0.00    -0.170 NA
ATOM     13  C   UNL     1      13.685 126.678 -12.505  1.00  0.00     0.138 A 
BRANCH  10  14
ATOM     14  C   UNL     1      15.962 125.108 -14.998  1.00  0.00     0.006 C 
ATOM     15  C   UNL     1      15.137 124.762 -16.254  1.00  0.00     0.017 C 
ATOM     16  C   UNL     1      16.794 123.871 -14.600  1.00  0.00     0.017 C 
ATOM     17  C   UNL     1      16.953 126.238 -15.352  1.00  0.00     0.017 C 
ENDBRANCH  10  14
BRANCH  13  18
ATOM     18  N   UNL     1      13.000 127.647 -11.776  1.00  0.00    -0.292 N 
ATOM     19  C   UNL     1      11.780 128.187 -12.174  1.00  0.00     0.324 C 
ATOM     20  O   UNL     1      11.171 127.863 -13.184  1.00  0.00    -0.248 OA
ATOM     21  N   UNL     1      11.355 129.124 -11.240  1.00  0.00    -0.307 N 
ATOM     22  H   UNL     1      13.521 128.156 -11.078  1.00  0.00     0.173 HD
ATOM     23  H   UNL     1      11.816 129.071 -10.350  1.00  0.00     0.171 HD
BRANCH  21  24
ATOM     24  C   UNL     1      10.230 129.988 -11.315  1.00  0.00     0.050 A 
ATOM     25  C   UNL     1      10.368 131.318 -11.737  1.00  0.00     0.027 A 
ATOM     26  C   UNL     1       8.939 129.501 -10.926  1.00  0.00     0.005 A 
ATOM     27  C   UNL     1       9.269 132.167 -11.802  1.00  0.00     0.003 A 
ATOM     28  C   UNL     1       8.666 128.184 -10.465  1.00  0.00     0.011 A 
ATOM     29  C   UNL     1       7.830 130.387 -11.001  1.00  0.00    -0.016 A 
ATOM     30  C   UNL     1       8.010 131.705 -11.440  1.00  0.00     0.009 A 
ATOM     31  C   UNL     1       7.380 127.771 -10.106  1.00  0.00     0.001 A 
ATOM     32  C   UNL     1       6.543 129.958 -10.636  1.00  0.00     0.009 A 
ATOM     33  C   UNL     1       6.318 128.658 -10.192  1.00  0.00     0.001 A 
ENDBRANCH  21  24
ENDBRANCH  13  18
ENDBRANCH   4   9
ENDBRANCH   1   3
BRANCH   1  34
ATOM     34  N   UNL     1      11.070 120.616 -10.652  1.00  0.00    -0.335 N 
BRANCH  34  35
ATOM     35  C   UNL     1      11.166 119.988 -11.974  1.00  0.00     0.135 C 
BRANCH  35  36
ATOM     36  C   UNL     1      12.607 119.572 -12.314  1.00  0.00     0.099 C 
BRANCH  36  37
ATOM     37  N   UNL     1      12.755 118.115 -12.367  1.00  0.00    -0.329 NA
ATOM     38  H   UNL     1      12.572 117.731 -11.439  1.00  0.00     0.118 HD
ATOM     39  H   UNL     1      13.731 117.893 -12.568  1.00  0.00     0.118 HD
ENDBRANCH  36  37
ENDBRANCH  35  36
ENDBRANCH  34  35
BRANCH  34  40
ATOM     40  C   UNL     1      11.737 119.923  -9.545  1.00  0.00     0.148 C 
BRANCH  40  41
ATOM     41  C   UNL     1      10.745 119.298  -8.555  1.00  0.00     0.177 C 
BRANCH  41  42
ATOM     42  O   UNL     1      10.090 120.307  -7.795  1.00  0.00    -0.395 OA
ATOM     43  H   UNL     1      10.763 120.758  -7.256  1.00  0.00     0.210 HD
ENDBRANCH  41  42
ENDBRANCH  40  41
ENDBRANCH  34  40
ENDBRANCH   1  34
TORSDOF 12
ENDMDL
MODEL 7
REMARK minimizedAffinity -6.63389778
REMARK CNNscore 0.13218683
REMARK CNNaffinity 6.14666986
REMARK SMILES CC(C)(C)c1cc(NC(=O)Nc2cccc3ccccc23)n(-c2cccc(C(=O)N(CCN)CCO)c2)n1
REMARK SMILES IDX 28 1 29 2 27 3 23 4 24 5 37 6 25 7 26 8 22 9 5 10 6 11 38 12
REMARK SMILES IDX 7 13 2 14 1 15 3 16 4 17 8 18 9 19 10 20 11 21 12 24 13 25
REMARK SMILES IDX 21 26 14 27 20 28 16 29 15 30 19 31 17 32 18 33 30 34 31 35
REMARK SMILES IDX 32 36 33 37 34 40 35 41 36 42
REMARK H PARENT 8 22 11 23 33 38 33 39 36 43
ROOT
ATOM      1  C   UNL     1      22.791 135.705  12.272  1.00  0.00     0.254 C 
ATOM      2  O   UNL     1      21.600 135.710  11.968  1.00  0.00    -0.269 OA
ENDROOT
BRANCH   1   3
ATOM      3  C   UNL     1      23.159 135.028  13.534  1.00  0.00     0.042 A 
ATOM      4  C   UNL     1      23.852 135.113  15.856  1.00  0.00     0.068 A 
ATOM      5  C   UNL     1      23.907 133.712  15.880  1.00  0.00     0.028 A 
ATOM      6  C   UNL     1      23.471 135.771  14.676  1.00  0.00     0.042 A 
ATOM      7  C   UNL     1      23.622 132.978  14.724  1.00  0.00     0.003 A 
ATOM      8  C   UNL     1      23.261 133.634  13.548  1.00  0.00     0.014 A 
BRANCH   4   9
ATOM      9  N   UNL     1      24.109 135.892  17.021  1.00  0.00    -0.217 N 
ATOM     10  C   UNL     1      25.361 136.705  18.556  1.00  0.00     0.070 A 
ATOM     11  C   UNL     1      24.203 137.516  18.502  1.00  0.00     0.073 A 
ATOM     12  N   UNL     1      25.256 135.671  17.713  1.00  0.00    -0.170 NA
ATOM     13  C   UNL     1      23.362 136.924  17.583  1.00  0.00     0.138 A 
BRANCH  10  14
ATOM     14  C   UNL     1      26.577 136.841  19.459  1.00  0.00     0.006 C 
ATOM     15  C   UNL     1      26.319 137.943  20.506  1.00  0.00     0.017 C 
ATOM     16  C   UNL     1      27.839 137.214  18.653  1.00  0.00     0.017 C 
ATOM     17  C   UNL     1      26.874 135.517  20.196  1.00  0.00     0.017 C 
ENDBRANCH  10  14
BRANCH  13  18
ATOM     18  N   UNL     1      22.035 137.195  17.259  1.00  0.00    -0.292 N 
ATOM     19  C   UNL     1      20.998 136.284  17.443  1.00  0.00     0.324 C 
ATOM     20  O   UNL     1      21.129 135.166  17.921  1.00  0.00    -0.248 OA
ATOM     21  N   UNL     1      19.799 136.848  17.024  1.00  0.00    -0.307 N 
ATOM     22  H   UNL     1      21.859 137.971  16.637  1.00  0.00     0.173 HD
ATOM     23  H   UNL     1      19.816 137.847  16.923  1.00  0.00     0.171 HD
BRANCH  21  24
ATOM     24  C   UNL     1      18.524 136.228  16.930  1.00  0.00     0.050 A 
ATOM     25  C   UNL     1      17.704 136.089  18.058  1.00  0.00     0.027 A 
ATOM     26  C   UNL     1      18.082 135.711  15.667  1.00  0.00     0.005 A 
ATOM     27  C   UNL     1      16.459 135.474  17.969  1.00  0.00     0.003 A 
ATOM     28  C   UNL     1      18.822 135.772  14.455  1.00  0.00     0.011 A 
ATOM     29  C   UNL     1      16.807 135.087  15.600  1.00  0.00    -0.016 A 
ATOM     30  C   UNL     1      16.014 134.980  16.749  1.00  0.00     0.009 A 
ATOM     31  C   UNL     1      18.329 135.252  13.254  1.00  0.00     0.001 A 
ATOM     32  C   UNL     1      16.325 134.569  14.386  1.00  0.00     0.009 A 
ATOM     33  C   UNL     1      17.080 134.651  13.220  1.00  0.00     0.001 A 
ENDBRANCH  21  24
ENDBRANCH  13  18
ENDBRANCH   4   9
ENDBRANCH   1   3
BRANCH   1  34
ATOM     34  N   UNL     1      23.787 136.297  11.493  1.00  0.00    -0.335 N 
BRANCH  34  35
ATOM     35  C   UNL     1      23.818 135.944  10.070  1.00  0.00     0.135 C 
BRANCH  35  36
ATOM     36  C   UNL     1      25.195 135.415   9.634  1.00  0.00     0.099 C 
BRANCH  36  37
ATOM     37  N   UNL     1      25.778 136.231   8.565  1.00  0.00    -0.329 NA
ATOM     38  H   UNL     1      25.185 136.162   7.737  1.00  0.00     0.118 HD
ATOM     39  H   UNL     1      26.674 135.823   8.295  1.00  0.00     0.118 HD
ENDBRANCH  36  37
ENDBRANCH  35  36
ENDBRANCH  34  35
BRANCH  34  40
ATOM     40  C   UNL     1      24.555 137.482  11.893  1.00  0.00     0.148 C 
BRANCH  40  41
ATOM     41  C   UNL     1      24.292 138.689  10.984  1.00  0.00     0.177 C 
BRANCH  41  42
ATOM     42  O   UNL     1      25.461 139.029  10.247  1.00  0.00    -0.395 OA
ATOM     43  H   UNL     1      26.142 139.310  10.883  1.00  0.00     0.210 HD
ENDBRANCH  41  42
ENDBRANCH  40  41
ENDBRANCH  34  40
ENDBRANCH   1  34
TORSDOF 12
ENDMDL
MODEL 8
REMARK minimizedAffinity -6.6483326
REMARK CNNscore 0.111780435
REMARK CNNaffinity 5.94255066
REMARK SMILES CC(C)(C)c1cc(NC(=O)Nc2cccc3ccccc23)n(-c2cccc(C(=O)N(CCN)CCO)c2)n1
REMARK SMILES IDX 28 1 29 2 27 3 23 4 24 5 37 6 25 7 26 8 22 9 5 10 6 11 38 12
REMARK SMILES IDX 7 13 2 14 1 15 3 16 4 17 8 18 9 19 10 20 11 21 12 24 13 25
REMARK SMILES IDX 21 26 14 27 20 28 16 29 15 30 19 31 17 32 18 33 30 34 31 35
REMARK SMILES IDX 32 36 33 37 34 40 35 41 36 42
REMARK H PARENT 8 22 11 23 33 38 33 39 36 43
ROOT
ATOM      1  C   UNL     1      18.609 136.961  18.542  1.00  0.00     0.254 C 
ATOM      2  O   UNL     1      19.308 136.485  19.434  1.00  0.00    -0.269 OA
ENDROOT
BRANCH   1   3
ATOM      3  C   UNL     1      19.309 137.531  17.372  1.00  0.00     0.042 A 
ATOM      4  C   UNL     1      20.871 137.316  15.530  1.00  0.00     0.068 A 
ATOM      5  C   UNL     1      20.659 138.664  15.206  1.00  0.00     0.028 A 
ATOM      6  C   UNL     1      20.187 136.749  16.617  1.00  0.00     0.042 A 
ATOM      7  C   UNL     1      19.801 139.447  15.986  1.00  0.00     0.003 A 
ATOM      8  C   UNL     1      19.137 138.886  17.076  1.00  0.00     0.014 A 
BRANCH   4   9
ATOM      9  N   UNL     1      21.716 136.482  14.742  1.00  0.00    -0.217 N 
ATOM     10  C   UNL     1      22.737 135.923  12.945  1.00  0.00     0.070 A 
ATOM     11  C   UNL     1      23.389 135.255  14.009  1.00  0.00     0.073 A 
ATOM     12  N   UNL     1      21.670 136.596  13.391  1.00  0.00    -0.170 NA
ATOM     13  C   UNL     1      22.662 135.541  15.145  1.00  0.00     0.138 A 
BRANCH  10  14
ATOM     14  C   UNL     1      23.061 135.889  11.460  1.00  0.00     0.006 C 
ATOM     15  C   UNL     1      24.402 135.161  11.243  1.00  0.00     0.017 C 
ATOM     16  C   UNL     1      23.174 137.313  10.874  1.00  0.00     0.017 C 
ATOM     17  C   UNL     1      21.961 135.149  10.667  1.00  0.00     0.017 C 
ENDBRANCH  10  14
BRANCH  13  18
ATOM     18  N   UNL     1      22.746 135.021  16.434  1.00  0.00    -0.292 N 
ATOM     19  C   UNL     1      23.363 133.810  16.735  1.00  0.00     0.324 C 
ATOM     20  O   UNL     1      23.910 133.084  15.917  1.00  0.00    -0.248 OA
ATOM     21  N   UNL     1      23.283 133.569  18.101  1.00  0.00    -0.307 N 
ATOM     22  H   UNL     1      22.122 135.403  17.130  1.00  0.00     0.173 HD
ATOM     23  H   UNL     1      23.058 134.374  18.659  1.00  0.00     0.171 HD
BRANCH  21  24
ATOM     24  C   UNL     1      23.678 132.404  18.811  1.00  0.00     0.050 A 
ATOM     25  C   UNL     1      24.989 132.256  19.282  1.00  0.00     0.027 A 
ATOM     26  C   UNL     1      22.728 131.350  19.023  1.00  0.00     0.005 A 
ATOM     27  C   UNL     1      25.380 131.111  19.970  1.00  0.00     0.003 A 
ATOM     28  C   UNL     1      21.376 131.367  18.583  1.00  0.00     0.011 A 
ATOM     29  C   UNL     1      23.150 130.190  19.728  1.00  0.00    -0.016 A 
ATOM     30  C   UNL     1      24.467 130.089  20.193  1.00  0.00     0.009 A 
ATOM     31  C   UNL     1      20.499 130.306  18.829  1.00  0.00     0.001 A 
ATOM     32  C   UNL     1      22.257 129.133  19.967  1.00  0.00     0.009 A 
ATOM     33  C   UNL     1      20.940 129.190  19.521  1.00  0.00     0.001 A 
ENDBRANCH  21  24
ENDBRANCH  13  18
ENDBRANCH   4   9
ENDBRANCH   1   3
BRANCH   1  34
ATOM     34  N   UNL     1      17.213 136.983  18.587  1.00  0.00    -0.335 N 
BRANCH  34  35
ATOM     35  C   UNL     1      16.507 135.890  17.911  1.00  0.00     0.135 C 
BRANCH  35  36
ATOM     36  C   UNL     1      15.853 134.919  18.908  1.00  0.00     0.099 C 
BRANCH  36  37
ATOM     37  N   UNL     1      16.660 133.711  19.101  1.00  0.00    -0.329 NA
ATOM     38  H   UNL     1      16.709 133.203  18.216  1.00  0.00     0.118 HD
ATOM     39  H   UNL     1      16.171 133.091  19.747  1.00  0.00     0.118 HD
ENDBRANCH  36  37
ENDBRANCH  35  36
ENDBRANCH  34  35
BRANCH  34  40
ATOM     40  C   UNL     1      16.429 137.787  19.531  1.00  0.00     0.148 C 
BRANCH  40  41
ATOM     41  C   UNL     1      15.828 139.040  18.883  1.00  0.00     0.177 C 
BRANCH  41  42
ATOM     42  O   UNL     1      14.410 138.944  18.820  1.00  0.00    -0.395 OA
ATOM     43  H   UNL     1      14.187 138.201  18.233  1.00  0.00     0.210 HD
ENDBRANCH  41  42
ENDBRANCH  40  41
ENDBRANCH  34  40
ENDBRANCH   1  34
TORSDOF 12
ENDMDL
MODEL 9
REMARK minimizedAffinity -8.6867466
REMARK CNNscore 0.099070698
REMARK CNNaffinity 5.49515152
REMARK SMILES CC(C)(C)c1cc(NC(=O)Nc2cccc3ccccc23)n(-c2cccc(C(=O)N(CCN)CCO)c2)n1
REMARK SMILES IDX 28 1 29 2 27 3 23 4 24 5 37 6 25 7 26 8 22 9 5 10 6 11 38 12
REMARK SMILES IDX 7 13 2 14 1 15 3 16 4 17 8 18 9 19 10 20 11 21 12 24 13 25
REMARK SMILES IDX 21 26 14 27 20 28 16 29 15 30 19 31 17 32 18 33 30 34 31 35
REMARK SMILES IDX 32 36 33 37 34 40 35 41 36 42
REMARK H PARENT 8 22 11 23 33 38 33 39 36 43
ROOT
ATOM      1  C   UNL     1      26.320 137.400   2.720  1.00  0.00     0.254 C 
ATOM      2  O   UNL     1      26.489 138.548   2.313  1.00  0.00    -0.269 OA
ENDROOT
BRANCH   1   3
ATOM      3  C   UNL     1      27.249 136.912   3.761  1.00  0.00     0.042 A 
ATOM      4  C   UNL     1      27.931 135.229   5.367  1.00  0.00     0.068 A 
ATOM      5  C   UNL     1      28.992 136.054   5.767  1.00  0.00     0.028 A 
ATOM      6  C   UNL     1      27.060 135.662   4.356  1.00  0.00     0.042 A 
ATOM      7  C   UNL     1      29.156 137.317   5.187  1.00  0.00     0.003 A 
ATOM      8  C   UNL     1      28.279 137.752   4.195  1.00  0.00     0.014 A 
BRANCH   4   9
ATOM      9  N   UNL     1      27.748 133.927   5.917  1.00  0.00    -0.217 N 
ATOM     10  C   UNL     1      28.350 131.918   6.350  1.00  0.00     0.070 A 
ATOM     11  C   UNL     1      27.313 132.238   7.259  1.00  0.00     0.073 A 
ATOM     12  N   UNL     1      28.546 132.918   5.484  1.00  0.00    -0.170 NA
ATOM     13  C   UNL     1      26.866 133.494   6.904  1.00  0.00     0.138 A 
BRANCH  10  14
ATOM     14  C   UNL     1      29.140 130.625   6.227  1.00  0.00     0.006 C 
ATOM     15  C   UNL     1      30.282 130.620   7.262  1.00  0.00     0.017 C 
ATOM     16  C   UNL     1      29.752 130.470   4.818  1.00  0.00     0.017 C 
ATOM     17  C   UNL     1      28.239 129.396   6.477  1.00  0.00     0.017 C 
ENDBRANCH  10  14
BRANCH  13  18
ATOM     18  N   UNL     1      25.764 134.224   7.341  1.00  0.00    -0.292 N 
ATOM     19  C   UNL     1      25.814 135.136   8.392  1.00  0.00     0.324 C 
ATOM     20  O   UNL     1      26.821 135.409   9.030  1.00  0.00    -0.248 OA
ATOM     21  N   UNL     1      24.558 135.699   8.585  1.00  0.00    -0.307 N 
ATOM     22  H   UNL     1      24.851 133.897   7.061  1.00  0.00     0.173 HD
ATOM     23  H   UNL     1      23.921 135.581   7.818  1.00  0.00     0.171 HD
BRANCH  21  24
ATOM     24  C   UNL     1      24.142 136.581   9.618  1.00  0.00     0.050 A 
ATOM     25  C   UNL     1      24.727 137.846   9.765  1.00  0.00     0.027 A 
ATOM     26  C   UNL     1      23.129 136.160  10.541  1.00  0.00     0.005 A 
ATOM     27  C   UNL     1      24.327 138.708  10.782  1.00  0.00     0.003 A 
ATOM     28  C   UNL     1      22.469 134.901  10.513  1.00  0.00     0.011 A 
ATOM     29  C   UNL     1      22.736 137.057  11.571  1.00  0.00    -0.016 A 
ATOM     30  C   UNL     1      23.338 138.317  11.675  1.00  0.00     0.009 A 
ATOM     31  C   UNL     1      21.483 134.554  11.442  1.00  0.00     0.001 A 
ATOM     32  C   UNL     1      21.743 136.695  12.497  1.00  0.00     0.009 A 
ATOM     33  C   UNL     1      21.120 135.453  12.434  1.00  0.00     0.001 A 
ENDBRANCH  21  24
ENDBRANCH  13  18
ENDBRANCH   4   9
ENDBRANCH   1   3
BRANCH   1  34
ATOM     34  N   UNL     1      25.310 136.558   2.250  1.00  0.00    -0.335 N 
BRANCH  34  35
ATOM     35  C   UNL     1      25.398 136.129   0.850  1.00  0.00     0.135 C 
BRANCH  35  36
ATOM     36  C   UNL     1      26.383 134.962   0.663  1.00  0.00     0.099 C 
BRANCH  36  37
ATOM     37  N   UNL     1      25.687 133.693   0.434  1.00  0.00    -0.329 NA
ATOM     38  H   UNL     1      25.144 133.461   1.267  1.00  0.00     0.118 HD
ATOM     39  H   UNL     1      26.382 132.951   0.344  1.00  0.00     0.118 HD
ENDBRANCH  36  37
ENDBRANCH  35  36
ENDBRANCH  34  35
BRANCH  34  40
ATOM     40  C   UNL     1      24.396 135.801   3.112  1.00  0.00     0.148 C 
BRANCH  40  41
ATOM     41  C   UNL     1      23.693 136.687   4.149  1.00  0.00     0.177 C 
BRANCH  41  42
ATOM     42  O   UNL     1      23.910 136.192   5.465  1.00  0.00    -0.395 OA
ATOM     43  H   UNL     1      23.490 135.316   5.526  1.00  0.00     0.210 HD
ENDBRANCH  41  42
ENDBRANCH  40  41
ENDBRANCH  34  40
ENDBRANCH   1  34
TORSDOF 12
ENDMDL
