MODEL 1
REMARK minimizedAffinity -8.49077415
REMARK CNNscore 0.653544307
REMARK CNNaffinity 6.87480164
REMARK SMILES CC(=O)NCC(=O)N1[C@@H]2CC[C@H]1c1ccc(Nc3ncc(C(F)(F)F)c(NC4CCC4)n3)cc12
REMARK SMILES IDX 8 1 12 2 11 3 10 4 9 5 34 6 33 7 16 8 15 9 14 10 13 11 6 12
REMARK SMILES IDX 7 13 5 14 4 15 2 16 3 17 1 18 17 20 18 22 19 23 32 24 20 25
REMARK SMILES IDX 26 26 21 27 27 28 28 30 29 31 31 32 30 33 22 34 23 35 24 36
REMARK SMILES IDX 25 37
REMARK H PARENT 4 19 17 21 27 29
ROOT
ATOM      1  N   UNL     1      21.999 135.807  12.626  1.00  0.00    -0.327 N 
ATOM      2  C   UNL     1      22.739 137.062  12.732  1.00  0.00     0.116 C 
ATOM      3  C   UNL     1      23.640 136.715  13.936  1.00  0.00     0.032 C 
ATOM      4  C   UNL     1      23.891 135.178  13.744  1.00  0.00     0.032 C 
ATOM      5  C   UNL     1      23.098 134.866  12.458  1.00  0.00     0.116 C 
ATOM      6  C   UNL     1      23.832 135.554  11.323  1.00  0.00    -0.018 A 
ATOM      7  C   UNL     1      24.611 135.073  10.291  1.00  0.00     0.032 A 
ATOM      8  C   UNL     1      25.180 135.995   9.390  1.00  0.00     0.041 A 
ATOM      9  C   UNL     1      24.944 137.376   9.591  1.00  0.00     0.026 A 
ATOM     10  C   UNL     1      24.155 137.862  10.645  1.00  0.00     0.008 A 
ATOM     11  C   UNL     1      23.605 136.936  11.496  1.00  0.00    -0.020 A 
ENDROOT
BRANCH   1  12
ATOM     12  C   UNL     1      20.763 135.606  12.061  1.00  0.00     0.242 C 
ATOM     13  O   UNL     1      20.620 135.317  10.871  1.00  0.00    -0.273 OA
BRANCH  12  14
ATOM     14  C   UNL     1      19.565 135.732  13.002  1.00  0.00     0.216 C 
BRANCH  14  15
ATOM     15  N   UNL     1      18.424 135.032  12.449  1.00  0.00    -0.347 N 
ATOM     16  C   UNL     1      17.347 134.696  13.224  1.00  0.00     0.217 C 
ATOM     17  O   UNL     1      17.288 134.931  14.427  1.00  0.00    -0.275 OA
ATOM     18  C   UNL     1      16.235 134.003  12.485  1.00  0.00     0.114 C 
ATOM     19  H   UNL     1      18.428 134.869  11.446  1.00  0.00     0.164 HD
ENDBRANCH  14  15
ENDBRANCH  12  14
ENDBRANCH   1  12
BRANCH   8  20
ATOM     20  N   UNL     1      25.981 135.492   8.355  1.00  0.00    -0.324 N 
ATOM     21  H   UNL     1      26.200 136.127   7.601  1.00  0.00     0.170 HD
BRANCH  20  22
ATOM     22  C   UNL     1      26.662 134.297   8.148  1.00  0.00     0.229 A 
ATOM     23  N   UNL     1      26.053 133.434   7.326  1.00  0.00    -0.221 NA
ATOM     24  N   UNL     1      27.835 134.030   8.736  1.00  0.00    -0.195 NA
ATOM     25  C   UNL     1      26.674 132.264   7.097  1.00  0.00     0.132 A 
ATOM     26  C   UNL     1      28.433 132.845   8.508  1.00  0.00     0.144 A 
ATOM     27  C   UNL     1      27.873 131.907   7.669  1.00  0.00     0.116 A 
BRANCH  26  28
ATOM     28  N   UNL     1      29.692 132.611   9.107  1.00  0.00    -0.367 N 
ATOM     29  H   UNL     1      29.678 132.891  10.087  1.00  0.00     0.162 HD
BRANCH  28  30
ATOM     30  C   UNL     1      30.927 132.974   8.457  1.00  0.00     0.080 C 
ATOM     31  C   UNL     1      31.920 133.650   9.428  1.00  0.00     0.025 C 
ATOM     32  C   UNL     1      30.852 134.315   7.694  1.00  0.00     0.025 C 
ATOM     33  C   UNL     1      31.379 135.016   8.962  1.00  0.00     0.004 C 
ENDBRANCH  28  30
ENDBRANCH  26  28
BRANCH  27  34
ATOM     34  C   UNL     1      28.515 130.611   7.346  1.00  0.00     0.421 C 
ATOM     35  F   UNL     1      28.883 129.905   8.449  1.00  0.00    -0.166 F 
ATOM     36  F   UNL     1      29.651 130.750   6.605  1.00  0.00    -0.166 F 
ATOM     37  F   UNL     1      27.713 129.783   6.615  1.00  0.00    -0.166 F 
ENDBRANCH  27  34
ENDBRANCH  20  22
ENDBRANCH   8  20
TORSDOF 8
ENDMDL
MODEL 2
REMARK minimizedAffinity -7.86411142
REMARK CNNscore 0.551740766
REMARK CNNaffinity 6.44847107
REMARK SMILES CC(=O)NCC(=O)N1[C@@H]2CC[C@H]1c1ccc(Nc3ncc(C(F)(F)F)c(NC4CCC4)n3)cc12
REMARK SMILES IDX 8 1 12 2 11 3 10 4 9 5 34 6 33 7 16 8 15 9 14 10 13 11 6 12
REMARK SMILES IDX 7 13 5 14 4 15 2 16 3 17 1 18 17 20 18 22 19 23 32 24 20 25
REMARK SMILES IDX 26 26 21 27 27 28 28 30 29 31 31 32 30 33 22 34 23 35 24 36
REMARK SMILES IDX 25 37
REMARK H PARENT 4 19 17 21 27 29
ROOT
ATOM      1  N   UNL     1      23.012 136.273  13.292  1.00  0.00    -0.327 N 
ATOM      2  C   UNL     1      21.909 136.339  12.336  1.00  0.00     0.116 C 
ATOM      3  C   UNL     1      21.838 137.869  12.150  1.00  0.00     0.032 C 
ATOM      4  C   UNL     1      23.339 138.303  12.293  1.00  0.00     0.032 C 
ATOM      5  C   UNL     1      24.054 136.959  12.541  1.00  0.00     0.116 C 
ATOM      6  C   UNL     1      23.967 136.180  11.242  1.00  0.00    -0.018 A 
ATOM      7  C   UNL     1      24.905 135.863  10.281  1.00  0.00     0.032 A 
ATOM      8  C   UNL     1      24.493 135.123   9.156  1.00  0.00     0.041 A 
ATOM      9  C   UNL     1      23.131 134.752   9.047  1.00  0.00     0.026 A 
ATOM     10  C   UNL     1      22.178 135.080  10.024  1.00  0.00     0.008 A 
ATOM     11  C   UNL     1      22.616 135.790  11.114  1.00  0.00    -0.020 A 
ENDROOT
BRANCH   1  12
ATOM     12  C   UNL     1      23.287 135.268  14.187  1.00  0.00     0.242 C 
ATOM     13  O   UNL     1      23.032 134.085  13.952  1.00  0.00    -0.273 OA
BRANCH  12  14
ATOM     14  C   UNL     1      23.960 135.695  15.491  1.00  0.00     0.216 C 
BRANCH  14  15
ATOM     15  N   UNL     1      24.224 134.534  16.317  1.00  0.00    -0.347 N 
ATOM     16  C   UNL     1      23.397 134.192  17.353  1.00  0.00     0.217 C 
ATOM     17  O   UNL     1      22.412 134.851  17.671  1.00  0.00    -0.275 OA
ATOM     18  C   UNL     1      23.798 132.941  18.087  1.00  0.00     0.114 C 
ATOM     19  H   UNL     1      25.006 133.946  16.044  1.00  0.00     0.164 HD
ENDBRANCH  14  15
ENDBRANCH  12  14
ENDBRANCH   1  12
BRANCH   8  20
ATOM     20  N   UNL     1      25.454 134.821   8.181  1.00  0.00    -0.324 N 
ATOM     21  H   UNL     1      25.584 135.501   7.445  1.00  0.00     0.170 HD
BRANCH  20  22
ATOM     22  C   UNL     1      26.390 133.804   8.023  1.00  0.00     0.229 A 
ATOM     23  N   UNL     1      26.023 132.823   7.188  1.00  0.00    -0.221 NA
ATOM     24  N   UNL     1      27.565 133.805   8.665  1.00  0.00    -0.195 NA
ATOM     25  C   UNL     1      26.896 131.817   7.005  1.00  0.00     0.132 A 
ATOM     26  C   UNL     1      28.418 132.779   8.482  1.00  0.00     0.144 A 
ATOM     27  C   UNL     1      28.116 131.736   7.634  1.00  0.00     0.116 A 
BRANCH  26  28
ATOM     28  N   UNL     1      29.668 132.831   9.138  1.00  0.00    -0.367 N 
ATOM     29  H   UNL     1      29.564 133.224  10.073  1.00  0.00     0.162 HD
BRANCH  28  30
ATOM     30  C   UNL     1      30.859 133.308   8.479  1.00  0.00     0.080 C 
ATOM     31  C   UNL     1      31.718 134.201   9.401  1.00  0.00     0.025 C 
ATOM     32  C   UNL     1      30.619 134.553   7.596  1.00  0.00     0.025 C 
ATOM     33  C   UNL     1      31.004 135.429   8.804  1.00  0.00     0.004 C 
ENDBRANCH  28  30
ENDBRANCH  26  28
BRANCH  27  34
ATOM     34  C   UNL     1      29.040 130.611   7.360  1.00  0.00     0.421 C 
ATOM     35  F   UNL     1      30.058 130.943   6.521  1.00  0.00    -0.166 F 
ATOM     36  F   UNL     1      28.421 129.544   6.778  1.00  0.00    -0.166 F 
ATOM     37  F   UNL     1      29.626 130.111   8.487  1.00  0.00    -0.166 F 
ENDBRANCH  27  34
ENDBRANCH  20  22
ENDBRANCH   8  20
TORSDOF 8
ENDMDL
MODEL 3
REMARK minimizedAffinity -8.65656376
REMARK CNNscore 0.529387832
REMARK CNNaffinity 6.80745554
REMARK SMILES CC(=O)NCC(=O)N1[C@@H]2CC[C@H]1c1ccc(Nc3ncc(C(F)(F)F)c(NC4CCC4)n3)cc12
REMARK SMILES IDX 8 1 12 2 11 3 10 4 9 5 34 6 33 7 16 8 15 9 14 10 13 11 6 12
REMARK SMILES IDX 7 13 5 14 4 15 2 16 3 17 1 18 17 20 18 22 19 23 32 24 20 25
REMARK SMILES IDX 26 26 21 27 27 28 28 30 29 31 31 32 30 33 22 34 23 35 24 36
REMARK SMILES IDX 25 37
REMARK H PARENT 4 19 17 21 27 29
ROOT
ATOM      1  N   UNL     1      21.871 135.389  12.918  1.00  0.00    -0.327 N 
ATOM      2  C   UNL     1      22.737 136.429  13.465  1.00  0.00     0.116 C 
ATOM      3  C   UNL     1      23.513 135.584  14.497  1.00  0.00     0.032 C 
ATOM      4  C   UNL     1      23.604 134.184  13.795  1.00  0.00     0.032 C 
ATOM      5  C   UNL     1      22.867 134.428  12.463  1.00  0.00     0.116 C 
ATOM      6  C   UNL     1      23.745 135.360  11.650  1.00  0.00    -0.018 A 
ATOM      7  C   UNL     1      24.531 135.161  10.534  1.00  0.00     0.032 A 
ATOM      8  C   UNL     1      25.256 136.253  10.017  1.00  0.00     0.041 A 
ATOM      9  C   UNL     1      25.164 137.503  10.675  1.00  0.00     0.026 A 
ATOM     10  C   UNL     1      24.367 137.701  11.813  1.00  0.00     0.008 A 
ATOM     11  C   UNL     1      23.663 136.619  12.282  1.00  0.00    -0.020 A 
ENDROOT
BRANCH   1  12
ATOM     12  C   UNL     1      20.660 135.550  12.290  1.00  0.00     0.242 C 
ATOM     13  O   UNL     1      20.538 135.493  11.064  1.00  0.00    -0.273 OA
BRANCH  12  14
ATOM     14  C   UNL     1      19.454 135.775  13.202  1.00  0.00     0.216 C 
BRANCH  14  15
ATOM     15  N   UNL     1      18.279 135.142  12.638  1.00  0.00    -0.347 N 
ATOM     16  C   UNL     1      17.224 134.765  13.424  1.00  0.00     0.217 C 
ATOM     17  O   UNL     1      17.212 134.904  14.643  1.00  0.00    -0.275 OA
ATOM     18  C   UNL     1      16.072 134.152  12.674  1.00  0.00     0.114 C 
ATOM     19  H   UNL     1      18.245 135.059  11.626  1.00  0.00     0.164 HD
ENDBRANCH  14  15
ENDBRANCH  12  14
ENDBRANCH   1  12
BRANCH   8  20
ATOM     20  N   UNL     1      26.062 136.031   8.892  1.00  0.00    -0.324 N 
ATOM     21  H   UNL     1      26.511 136.841   8.488  1.00  0.00     0.170 HD
BRANCH  20  22
ATOM     22  C   UNL     1      26.494 134.895   8.215  1.00  0.00     0.229 A 
ATOM     23  N   UNL     1      27.268 134.071   8.932  1.00  0.00    -0.221 NA
ATOM     24  N   UNL     1      26.165 134.652   6.940  1.00  0.00    -0.195 NA
ATOM     25  C   UNL     1      27.710 132.959   8.318  1.00  0.00     0.132 A 
ATOM     26  C   UNL     1      26.634 133.542   6.338  1.00  0.00     0.144 A 
ATOM     27  C   UNL     1      27.429 132.641   7.010  1.00  0.00     0.116 A 
BRANCH  26  28
ATOM     28  N   UNL     1      26.232 133.290   5.006  1.00  0.00    -0.367 N 
ATOM     29  H   UNL     1      26.001 132.305   4.884  1.00  0.00     0.162 HD
BRANCH  28  30
ATOM     30  C   UNL     1      26.954 133.822   3.876  1.00  0.00     0.080 C 
ATOM     31  C   UNL     1      26.057 134.692   2.968  1.00  0.00     0.025 C 
ATOM     32  C   UNL     1      27.077 132.827   2.700  1.00  0.00     0.025 C 
ATOM     33  C   UNL     1      25.798 133.444   2.102  1.00  0.00     0.004 C 
ENDBRANCH  28  30
ENDBRANCH  26  28
BRANCH  27  34
ATOM     34  C   UNL     1      27.927 131.382   6.409  1.00  0.00     0.421 C 
ATOM     35  F   UNL     1      28.873 131.580   5.452  1.00  0.00    -0.166 F 
ATOM     36  F   UNL     1      26.944 130.655   5.805  1.00  0.00    -0.166 F 
ATOM     37  F   UNL     1      28.484 130.534   7.323  1.00  0.00    -0.166 F 
ENDBRANCH  27  34
ENDBRANCH  20  22
ENDBRANCH   8  20
TORSDOF 8
ENDMDL
MODEL 4
REMARK minimizedAffinity -8.12522602
REMARK CNNscore 0.357400686
REMARK CNNaffinity 6.51822805
REMARK SMILES CC(=O)NCC(=O)N1[C@@H]2CC[C@H]1c1ccc(Nc3ncc(C(F)(F)F)c(NC4CCC4)n3)cc12
REMARK SMILES IDX 8 1 12 2 11 3 10 4 9 5 34 6 33 7 16 8 15 9 14 10 13 11 6 12
REMARK SMILES IDX 7 13 5 14 4 15 2 16 3 17 1 18 17 20 18 22 19 23 32 24 20 25
REMARK SMILES IDX 26 26 21 27 27 28 28 30 29 31 31 32 30 33 22 34 23 35 24 36
REMARK SMILES IDX 25 37
REMARK H PARENT 4 19 17 21 27 29
ROOT
ATOM      1  N   UNL     1      22.032 135.620  13.056  1.00  0.00    -0.327 N 
ATOM      2  C   UNL     1      23.049 136.547  13.547  1.00  0.00     0.116 C 
ATOM      3  C   UNL     1      23.811 135.595  14.493  1.00  0.00     0.032 C 
ATOM      4  C   UNL     1      23.690 134.213  13.760  1.00  0.00     0.032 C 
ATOM      5  C   UNL     1      22.876 134.571  12.500  1.00  0.00     0.116 C 
ATOM      6  C   UNL     1      23.781 135.426  11.633  1.00  0.00    -0.018 A 
ATOM      7  C   UNL     1      24.445 135.175  10.450  1.00  0.00     0.032 A 
ATOM      8  C   UNL     1      25.239 136.197   9.894  1.00  0.00     0.041 A 
ATOM      9  C   UNL     1      25.338 137.431  10.580  1.00  0.00     0.026 A 
ATOM     10  C   UNL     1      24.665 137.681  11.785  1.00  0.00     0.008 A 
ATOM     11  C   UNL     1      23.888 136.669  12.293  1.00  0.00    -0.020 A 
ENDROOT
BRANCH   1  12
ATOM     12  C   UNL     1      20.798 135.927  12.538  1.00  0.00     0.242 C 
ATOM     13  O   UNL     1      20.184 135.158  11.794  1.00  0.00    -0.273 OA
BRANCH  12  14
ATOM     14  C   UNL     1      20.206 137.272  12.958  1.00  0.00     0.216 C 
BRANCH  14  15
ATOM     15  N   UNL     1      20.471 138.271  11.943  1.00  0.00    -0.347 N 
ATOM     16  C   UNL     1      21.181 139.406  12.226  1.00  0.00     0.217 C 
ATOM     17  O   UNL     1      21.605 139.669  13.347  1.00  0.00    -0.275 OA
ATOM     18  C   UNL     1      21.394 140.321  11.051  1.00  0.00     0.114 C 
ATOM     19  H   UNL     1      20.172 138.053  10.997  1.00  0.00     0.164 HD
ENDBRANCH  14  15
ENDBRANCH  12  14
ENDBRANCH   1  12
BRANCH   8  20
ATOM     20  N   UNL     1      25.920 135.922   8.700  1.00  0.00    -0.324 N 
ATOM     21  H   UNL     1      26.191 136.716   8.138  1.00  0.00     0.170 HD
BRANCH  20  22
ATOM     22  C   UNL     1      26.424 134.765   8.114  1.00  0.00     0.229 A 
ATOM     23  N   UNL     1      27.303 134.088   8.865  1.00  0.00    -0.221 NA
ATOM     24  N   UNL     1      26.063 134.366   6.888  1.00  0.00    -0.195 NA
ATOM     25  C   UNL     1      27.818 132.963   8.339  1.00  0.00     0.132 A 
ATOM     26  C   UNL     1      26.605 133.247   6.372  1.00  0.00     0.144 A 
ATOM     27  C   UNL     1      27.509 132.491   7.085  1.00  0.00     0.116 A 
BRANCH  26  28
ATOM     28  N   UNL     1      26.169 132.827   5.095  1.00  0.00    -0.367 N 
ATOM     29  H   UNL     1      26.454 131.863   4.920  1.00  0.00     0.162 HD
BRANCH  28  30
ATOM     30  C   UNL     1      26.320 133.657   3.924  1.00  0.00     0.080 C 
ATOM     31  C   UNL     1      26.613 132.827   2.655  1.00  0.00     0.025 C 
ATOM     32  C   UNL     1      27.732 134.268   3.778  1.00  0.00     0.025 C 
ATOM     33  C   UNL     1      28.116 133.059   2.902  1.00  0.00     0.004 C 
ENDBRANCH  28  30
ENDBRANCH  26  28
BRANCH  27  34
ATOM     34  C   UNL     1      28.094 131.226   6.582  1.00  0.00     0.421 C 
ATOM     35  F   UNL     1      28.920 131.402   5.516  1.00  0.00    -0.166 F 
ATOM     36  F   UNL     1      27.152 130.330   6.171  1.00  0.00    -0.166 F 
ATOM     37  F   UNL     1      28.828 130.563   7.524  1.00  0.00    -0.166 F 
ENDBRANCH  27  34
ENDBRANCH  20  22
ENDBRANCH   8  20
TORSDOF 8
ENDMDL
MODEL 5
REMARK minimizedAffinity -8.44781971
REMARK CNNscore 0.31994164
REMARK CNNaffinity 6.21007586
REMARK SMILES CC(=O)NCC(=O)N1[C@@H]2CC[C@H]1c1ccc(Nc3ncc(C(F)(F)F)c(NC4CCC4)n3)cc12
REMARK SMILES IDX 8 1 12 2 11 3 10 4 9 5 34 6 33 7 16 8 15 9 14 10 13 11 6 12
REMARK SMILES IDX 7 13 5 14 4 15 2 16 3 17 1 18 17 20 18 22 19 23 32 24 20 25
REMARK SMILES IDX 26 26 21 27 27 28 28 30 29 31 31 32 30 33 22 34 23 35 24 36
REMARK SMILES IDX 25 37
REMARK H PARENT 4 19 17 21 27 29
ROOT
ATOM      1  N   UNL     1      27.869 134.135   7.167  1.00  0.00    -0.327 N 
ATOM      2  C   UNL     1      28.375 135.336   6.509  1.00  0.00     0.116 C 
ATOM      3  C   UNL     1      27.342 135.444   5.368  1.00  0.00     0.032 C 
ATOM      4  C   UNL     1      26.034 134.895   6.037  1.00  0.00     0.032 C 
ATOM      5  C   UNL     1      26.505 134.552   7.464  1.00  0.00     0.116 C 
ATOM      6  C   UNL     1      26.802 135.873   8.149  1.00  0.00    -0.018 A 
ATOM      7  C   UNL     1      26.146 136.577   9.137  1.00  0.00     0.032 A 
ATOM      8  C   UNL     1      26.681 137.812   9.552  1.00  0.00     0.041 A 
ATOM      9  C   UNL     1      27.858 138.289   8.925  1.00  0.00     0.026 A 
ATOM     10  C   UNL     1      28.520 137.571   7.917  1.00  0.00     0.008 A 
ATOM     11  C   UNL     1      27.979 136.365   7.546  1.00  0.00    -0.020 A 
ENDROOT
BRANCH   1  12
ATOM     12  C   UNL     1      28.563 133.259   7.966  1.00  0.00     0.242 C 
ATOM     13  O   UNL     1      29.486 133.623   8.699  1.00  0.00    -0.273 OA
BRANCH  12  14
ATOM     14  C   UNL     1      28.108 131.801   7.920  1.00  0.00     0.216 C 
BRANCH  14  15
ATOM     15  N   UNL     1      27.880 131.395   6.548  1.00  0.00    -0.347 N 
ATOM     16  C   UNL     1      26.630 131.056   6.103  1.00  0.00     0.217 C 
ATOM     17  O   UNL     1      25.641 131.040   6.828  1.00  0.00    -0.275 OA
ATOM     18  C   UNL     1      26.564 130.690   4.645  1.00  0.00     0.114 C 
ATOM     19  H   UNL     1      28.674 131.446   5.917  1.00  0.00     0.164 HD
ENDBRANCH  14  15
ENDBRANCH  12  14
ENDBRANCH   1  12
BRANCH   8  20
ATOM     20  N   UNL     1      25.995 138.524  10.546  1.00  0.00    -0.324 N 
ATOM     21  H   UNL     1      26.459 139.336  10.927  1.00  0.00     0.170 HD
BRANCH  20  22
ATOM     22  C   UNL     1      24.722 138.435  11.100  1.00  0.00     0.229 A 
ATOM     23  N   UNL     1      23.827 139.296  10.600  1.00  0.00    -0.221 NA
ATOM     24  N   UNL     1      24.420 137.559  12.067  1.00  0.00    -0.195 NA
ATOM     25  C   UNL     1      22.582 139.247  11.107  1.00  0.00     0.132 A 
ATOM     26  C   UNL     1      23.173 137.539  12.574  1.00  0.00     0.144 A 
ATOM     27  C   UNL     1      22.193 138.387  12.107  1.00  0.00     0.116 A 
BRANCH  26  28
ATOM     28  N   UNL     1      22.873 136.573  13.561  1.00  0.00    -0.367 N 
ATOM     29  H   UNL     1      23.385 136.771  14.421  1.00  0.00     0.162 HD
BRANCH  28  30
ATOM     30  C   UNL     1      22.839 135.161  13.265  1.00  0.00     0.080 C 
ATOM     31  C   UNL     1      23.887 134.762  12.203  1.00  0.00     0.025 C 
ATOM     32  C   UNL     1      21.746 134.772  12.244  1.00  0.00     0.025 C 
ATOM     33  C   UNL     1      22.796 134.923  11.127  1.00  0.00     0.004 C 
ENDBRANCH  28  30
ENDBRANCH  26  28
BRANCH  27  34
ATOM     34  C   UNL     1      20.795 138.370  12.595  1.00  0.00     0.421 C 
ATOM     35  F   UNL     1      20.025 139.353  12.056  1.00  0.00    -0.166 F 
ATOM     36  F   UNL     1      20.701 138.532  13.946  1.00  0.00    -0.166 F 
ATOM     37  F   UNL     1      20.149 137.195  12.333  1.00  0.00    -0.166 F 
ENDBRANCH  27  34
ENDBRANCH  20  22
ENDBRANCH   8  20
TORSDOF 8
ENDMDL
MODEL 6
REMARK minimizedAffinity -7.28168011
REMARK CNNscore 0.303348333
REMARK CNNaffinity 6.35167837
REMARK SMILES CC(=O)NCC(=O)N1[C@@H]2CC[C@H]1c1ccc(Nc3ncc(C(F)(F)F)c(NC4CCC4)n3)cc12
REMARK SMILES IDX 8 1 12 2 11 3 10 4 9 5 34 6 33 7 16 8 15 9 14 10 13 11 6 12
REMARK SMILES IDX 7 13 5 14 4 15 2 16 3 17 1 18 17 20 18 22 19 23 32 24 20 25
REMARK SMILES IDX 26 26 21 27 27 28 28 30 29 31 31 32 30 33 22 34 23 35 24 36
REMARK SMILES IDX 25 37
REMARK H PARENT 4 19 17 21 27 29
ROOT
ATOM      1  N   UNL     1      29.131 135.172   7.310  1.00  0.00    -0.327 N 
ATOM      2  C   UNL     1      28.834 136.595   7.446  1.00  0.00     0.116 C 
ATOM      3  C   UNL     1      28.529 136.925   5.970  1.00  0.00     0.032 C 
ATOM      4  C   UNL     1      27.870 135.599   5.451  1.00  0.00     0.032 C 
ATOM      5  C   UNL     1      27.892 134.700   6.705  1.00  0.00     0.116 C 
ATOM      6  C   UNL     1      26.902 135.304   7.684  1.00  0.00    -0.018 A 
ATOM      7  C   UNL     1      25.651 134.906   8.106  1.00  0.00     0.032 A 
ATOM      8  C   UNL     1      24.964 135.715   9.033  1.00  0.00     0.041 A 
ATOM      9  C   UNL     1      25.578 136.911   9.478  1.00  0.00     0.026 A 
ATOM     10  C   UNL     1      26.849 137.314   9.042  1.00  0.00     0.008 A 
ATOM     11  C   UNL     1      27.497 136.496   8.150  1.00  0.00    -0.020 A 
ENDROOT
BRANCH   1  12
ATOM     12  C   UNL     1      29.888 134.389   8.146  1.00  0.00     0.242 C 
ATOM     13  O   UNL     1      30.777 134.855   8.863  1.00  0.00    -0.273 OA
BRANCH  12  14
ATOM     14  C   UNL     1      29.549 132.899   8.163  1.00  0.00     0.216 C 
BRANCH  14  15
ATOM     15  N   UNL     1      30.719 132.118   7.816  1.00  0.00    -0.347 N 
ATOM     16  C   UNL     1      30.877 130.833   8.259  1.00  0.00     0.217 C 
ATOM     17  O   UNL     1      30.070 130.272   8.994  1.00  0.00    -0.275 OA
ATOM     18  C   UNL     1      32.132 130.155   7.779  1.00  0.00     0.114 C 
ATOM     19  H   UNL     1      31.378 132.543   7.170  1.00  0.00     0.164 HD
ENDBRANCH  14  15
ENDBRANCH  12  14
ENDBRANCH   1  12
BRANCH   8  20
ATOM     20  N   UNL     1      23.687 135.305   9.442  1.00  0.00    -0.324 N 
ATOM     21  H   UNL     1      23.251 134.571   8.902  1.00  0.00     0.170 HD
BRANCH  20  22
ATOM     22  C   UNL     1      22.869 135.613  10.523  1.00  0.00     0.229 A 
ATOM     23  N   UNL     1      21.806 134.813  10.674  1.00  0.00    -0.221 NA
ATOM     24  N   UNL     1      23.123 136.640  11.345  1.00  0.00    -0.195 NA
ATOM     25  C   UNL     1      20.985 135.074  11.707  1.00  0.00     0.132 A 
ATOM     26  C   UNL     1      22.279 136.895  12.363  1.00  0.00     0.144 A 
ATOM     27  C   UNL     1      21.168 136.113  12.589  1.00  0.00     0.116 A 
BRANCH  26  28
ATOM     28  N   UNL     1      22.599 137.956  13.239  1.00  0.00    -0.367 N 
ATOM     29  H   UNL     1      22.001 137.929  14.065  1.00  0.00     0.162 HD
BRANCH  28  30
ATOM     30  C   UNL     1      22.807 139.303  12.766  1.00  0.00     0.080 C 
ATOM     31  C   UNL     1      21.934 140.328  13.522  1.00  0.00     0.025 C 
ATOM     32  C   UNL     1      21.998 139.642  11.494  1.00  0.00     0.025 C 
ATOM     33  C   UNL     1      20.883 140.194  12.403  1.00  0.00     0.004 C 
ENDBRANCH  28  30
ENDBRANCH  26  28
BRANCH  27  34
ATOM     34  C   UNL     1      20.237 136.321  13.722  1.00  0.00     0.421 C 
ATOM     35  F   UNL     1      20.761 135.954  14.923  1.00  0.00    -0.166 F 
ATOM     36  F   UNL     1      19.079 135.612  13.597  1.00  0.00    -0.166 F 
ATOM     37  F   UNL     1      19.844 137.621  13.862  1.00  0.00    -0.166 F 
ENDBRANCH  27  34
ENDBRANCH  20  22
ENDBRANCH   8  20
TORSDOF 8
ENDMDL
MODEL 7
REMARK minimizedAffinity -7.18220186
REMARK CNNscore 0.229507461
REMARK CNNaffinity 6.0831337
REMARK SMILES CC(=O)NCC(=O)N1[C@@H]2CC[C@H]1c1ccc(Nc3ncc(C(F)(F)F)c(NC4CCC4)n3)cc12
REMARK SMILES IDX 8 1 12 2 11 3 10 4 9 5 34 6 33 7 16 8 15 9 14 10 13 11 6 12
REMARK SMILES IDX 7 13 5 14 4 15 2 16 3 17 1 18 17 20 18 22 19 23 32 24 20 25
REMARK SMILES IDX 26 26 21 27 27 28 28 30 29 31 31 32 30 33 22 34 23 35 24 36
REMARK SMILES IDX 25 37
REMARK H PARENT 4 19 17 21 27 29
ROOT
ATOM      1  N   UNL     1      29.165 131.129   6.490  1.00  0.00    -0.327 N 
ATOM      2  C   UNL     1      28.663 131.843   5.319  1.00  0.00     0.116 C 
ATOM      3  C   UNL     1      27.485 130.916   4.953  1.00  0.00     0.032 C 
ATOM      4  C   UNL     1      27.000 130.407   6.356  1.00  0.00     0.032 C 
ATOM      5  C   UNL     1      27.970 131.115   7.323  1.00  0.00     0.116 C 
ATOM      6  C   UNL     1      27.626 132.592   7.273  1.00  0.00    -0.018 A 
ATOM      7  C   UNL     1      27.002 133.433   8.171  1.00  0.00     0.032 A 
ATOM      8  C   UNL     1      26.811 134.781   7.809  1.00  0.00     0.041 A 
ATOM      9  C   UNL     1      27.250 135.212   6.534  1.00  0.00     0.026 A 
ATOM     10  C   UNL     1      27.880 134.352   5.622  1.00  0.00     0.008 A 
ATOM     11  C   UNL     1      28.063 133.048   6.011  1.00  0.00    -0.020 A 
ENDROOT
BRANCH   1  12
ATOM     12  C   UNL     1      30.432 131.169   7.017  1.00  0.00     0.242 C 
ATOM     13  O   UNL     1      30.775 130.462   7.969  1.00  0.00    -0.273 OA
BRANCH  12  14
ATOM     14  C   UNL     1      31.415 132.122   6.338  1.00  0.00     0.216 C 
BRANCH  14  15
ATOM     15  N   UNL     1      32.742 131.946   6.892  1.00  0.00    -0.347 N 
ATOM     16  C   UNL     1      33.253 132.820   7.813  1.00  0.00     0.217 C 
ATOM     17  O   UNL     1      32.648 133.813   8.202  1.00  0.00    -0.275 OA
ATOM     18  C   UNL     1      34.630 132.471   8.309  1.00  0.00     0.114 C 
ATOM     19  H   UNL     1      33.243 131.104   6.621  1.00  0.00     0.164 HD
ENDBRANCH  14  15
ENDBRANCH  12  14
ENDBRANCH   1  12
BRANCH   8  20
ATOM     20  N   UNL     1      26.163 135.621   8.726  1.00  0.00    -0.324 N 
ATOM     21  H   UNL     1      26.548 136.546   8.846  1.00  0.00     0.170 HD
BRANCH  20  22
ATOM     22  C   UNL     1      24.999 135.518   9.481  1.00  0.00     0.229 A 
ATOM     23  N   UNL     1      23.901 135.196   8.786  1.00  0.00    -0.221 NA
ATOM     24  N   UNL     1      24.981 135.734  10.803  1.00  0.00    -0.195 NA
ATOM     25  C   UNL     1      22.751 135.086   9.475  1.00  0.00     0.132 A 
ATOM     26  C   UNL     1      23.816 135.637  11.471  1.00  0.00     0.144 A 
ATOM     27  C   UNL     1      22.644 135.302  10.829  1.00  0.00     0.116 A 
BRANCH  26  28
ATOM     28  N   UNL     1      23.837 135.826  12.872  1.00  0.00    -0.367 N 
ATOM     29  H   UNL     1      24.108 136.783  13.098  1.00  0.00     0.162 HD
BRANCH  28  30
ATOM     30  C   UNL     1      24.441 134.867  13.764  1.00  0.00     0.080 C 
ATOM     31  C   UNL     1      23.558 133.614  13.957  1.00  0.00     0.025 C 
ATOM     32  C   UNL     1      24.210 135.185  15.259  1.00  0.00     0.025 C 
ATOM     33  C   UNL     1      22.965 134.277  15.215  1.00  0.00     0.004 C 
ENDBRANCH  28  30
ENDBRANCH  26  28
BRANCH  27  34
ATOM     34  C   UNL     1      21.348 135.134  11.527  1.00  0.00     0.421 C 
ATOM     35  F   UNL     1      21.070 133.840  11.840  1.00  0.00    -0.166 F 
ATOM     36  F   UNL     1      20.286 135.567  10.789  1.00  0.00    -0.166 F 
ATOM     37  F   UNL     1      21.275 135.831  12.698  1.00  0.00    -0.166 F 
ENDBRANCH  27  34
ENDBRANCH  20  22
ENDBRANCH   8  20
TORSDOF 8
ENDMDL
MODEL 8
REMARK minimizedAffinity -7.60921383
REMARK CNNscore 0.223365784
REMARK CNNaffinity 6.22832346
REMARK SMILES CC(=O)NCC(=O)N1[C@@H]2CC[C@H]1c1ccc(Nc3ncc(C(F)(F)F)c(NC4CCC4)n3)cc12
REMARK SMILES IDX 8 1 12 2 11 3 10 4 9 5 34 6 33 7 16 8 15 9 14 10 13 11 6 12
REMARK SMILES IDX 7 13 5 14 4 15 2 16 3 17 1 18 17 20 18 22 19 23 32 24 20 25
REMARK SMILES IDX 26 26 21 27 27 28 28 30 29 31 31 32 30 33 22 34 23 35 24 36
REMARK SMILES IDX 25 37
REMARK H PARENT 4 19 17 21 27 29
ROOT
ATOM      1  N   UNL     1      22.543 137.721  13.368  1.00  0.00    -0.327 N 
ATOM      2  C   UNL     1      21.564 137.062  12.509  1.00  0.00     0.116 C 
ATOM      3  C   UNL     1      20.901 138.311  11.890  1.00  0.00     0.032 C 
ATOM      4  C   UNL     1      22.096 139.325  11.802  1.00  0.00     0.032 C 
ATOM      5  C   UNL     1      23.270 138.511  12.384  1.00  0.00     0.116 C 
ATOM      6  C   UNL     1      23.575 137.418  11.377  1.00  0.00    -0.018 A 
ATOM      7  C   UNL     1      24.617 137.232  10.492  1.00  0.00     0.032 A 
ATOM      8  C   UNL     1      24.599 136.095   9.660  1.00  0.00     0.041 A 
ATOM      9  C   UNL     1      23.504 135.202   9.753  1.00  0.00     0.026 A 
ATOM     10  C   UNL     1      22.444 135.396  10.652  1.00  0.00     0.008 A 
ATOM     11  C   UNL     1      22.500 136.506  11.457  1.00  0.00    -0.020 A 
ENDROOT
BRANCH   1  12
ATOM     12  C   UNL     1      23.141 137.218  14.498  1.00  0.00     0.242 C 
ATOM     13  O   UNL     1      23.137 137.822  15.573  1.00  0.00    -0.273 OA
BRANCH  12  14
ATOM     14  C   UNL     1      23.794 135.843  14.358  1.00  0.00     0.216 C 
BRANCH  14  15
ATOM     15  N   UNL     1      23.661 135.103  15.597  1.00  0.00    -0.347 N 
ATOM     16  C   UNL     1      23.479 133.746  15.602  1.00  0.00     0.217 C 
ATOM     17  O   UNL     1      23.384 133.078  14.577  1.00  0.00    -0.275 OA
ATOM     18  C   UNL     1      23.395 133.131  16.973  1.00  0.00     0.114 C 
ATOM     19  H   UNL     1      23.785 135.626  16.459  1.00  0.00     0.164 HD
ENDBRANCH  14  15
ENDBRANCH  12  14
ENDBRANCH   1  12
BRANCH   8  20
ATOM     20  N   UNL     1      25.656 135.928   8.755  1.00  0.00    -0.324 N 
ATOM     21  H   UNL     1      26.170 136.758   8.498  1.00  0.00     0.170 HD
BRANCH  20  22
ATOM     22  C   UNL     1      26.263 134.824   8.165  1.00  0.00     0.229 A 
ATOM     23  N   UNL     1      27.082 134.133   8.968  1.00  0.00    -0.221 NA
ATOM     24  N   UNL     1      26.050 134.486   6.887  1.00  0.00    -0.195 NA
ATOM     25  C   UNL     1      27.693 133.058   8.440  1.00  0.00     0.132 A 
ATOM     26  C   UNL     1      26.685 133.416   6.372  1.00  0.00     0.144 A 
ATOM     27  C   UNL     1      27.537 132.650   7.136  1.00  0.00     0.116 A 
BRANCH  26  28
ATOM     28  N   UNL     1      26.404 133.058   5.034  1.00  0.00    -0.367 N 
ATOM     29  H   UNL     1      26.380 132.044   4.934  1.00  0.00     0.162 HD
BRANCH  28  30
ATOM     30  C   UNL     1      27.057 133.697   3.918  1.00  0.00     0.080 C 
ATOM     31  C   UNL     1      26.100 134.623   3.135  1.00  0.00     0.025 C 
ATOM     32  C   UNL     1      27.132 132.808   2.656  1.00  0.00     0.025 C 
ATOM     33  C   UNL     1      25.814 133.449   2.179  1.00  0.00     0.004 C 
ENDBRANCH  28  30
ENDBRANCH  26  28
BRANCH  27  34
ATOM     34  C   UNL     1      28.220 131.435   6.632  1.00  0.00     0.421 C 
ATOM     35  F   UNL     1      29.071 131.686   5.602  1.00  0.00    -0.166 F 
ATOM     36  F   UNL     1      27.352 130.491   6.167  1.00  0.00    -0.166 F 
ATOM     37  F   UNL     1      28.958 130.799   7.588  1.00  0.00    -0.166 F 
ENDBRANCH  27  34
ENDBRANCH  20  22
ENDBRANCH   8  20
TORSDOF 8
ENDMDL
MODEL 9
REMARK minimizedAffinity -6.98656845
REMARK CNNscore 0.197054029
REMARK CNNaffinity 5.5641942
REMARK SMILES CC(=O)NCC(=O)N1[C@@H]2CC[C@H]1c1ccc(Nc3ncc(C(F)(F)F)c(NC4CCC4)n3)cc12
REMARK SMILES IDX 8 1 12 2 11 3 10 4 9 5 34 6 33 7 16 8 15 9 14 10 13 11 6 12
REMARK SMILES IDX 7 13 5 14 4 15 2 16 3 17 1 18 17 20 18 22 19 23 32 24 20 25
REMARK SMILES IDX 26 26 21 27 27 28 28 30 29 31 31 32 30 33 22 34 23 35 24 36
REMARK SMILES IDX 25 37
REMARK H PARENT 4 19 17 21 27 29
ROOT
ATOM      1  N   UNL     1      26.966 137.496   1.000  1.00  0.00    -0.327 N 
ATOM      2  C   UNL     1      25.585 137.036   0.883  1.00  0.00     0.116 C 
ATOM      3  C   UNL     1      25.816 135.783   0.013  1.00  0.00     0.032 C 
ATOM      4  C   UNL     1      27.218 135.278   0.505  1.00  0.00     0.032 C 
ATOM      5  C   UNL     1      27.588 136.315   1.585  1.00  0.00     0.116 C 
ATOM      6  C   UNL     1      26.634 136.090   2.743  1.00  0.00    -0.018 A 
ATOM      7  C   UNL     1      26.807 135.548   3.999  1.00  0.00     0.032 A 
ATOM      8  C   UNL     1      25.691 135.461   4.854  1.00  0.00     0.041 A 
ATOM      9  C   UNL     1      24.436 135.915   4.383  1.00  0.00     0.026 A 
ATOM     10  C   UNL     1      24.263 136.461   3.102  1.00  0.00     0.008 A 
ATOM     11  C   UNL     1      25.373 136.544   2.299  1.00  0.00    -0.020 A 
ENDROOT
BRANCH   1  12
ATOM     12  C   UNL     1      27.407 138.769   1.263  1.00  0.00     0.242 C 
ATOM     13  O   UNL     1      26.642 139.680   1.591  1.00  0.00    -0.273 OA
BRANCH  12  14
ATOM     14  C   UNL     1      28.915 138.994   1.157  1.00  0.00     0.216 C 
BRANCH  14  15
ATOM     15  N   UNL     1      29.334 138.908  -0.227  1.00  0.00    -0.347 N 
ATOM     16  C   UNL     1      30.231 137.961  -0.644  1.00  0.00     0.217 C 
ATOM     17  O   UNL     1      30.759 137.156   0.117  1.00  0.00    -0.275 OA
ATOM     18  C   UNL     1      30.532 137.990  -2.118  1.00  0.00     0.114 C 
ATOM     19  H   UNL     1      28.875 139.532  -0.885  1.00  0.00     0.164 HD
ENDBRANCH  14  15
ENDBRANCH  12  14
ENDBRANCH   1  12
BRANCH   8  20
ATOM     20  N   UNL     1      25.879 134.894   6.123  1.00  0.00    -0.324 N 
ATOM     21  H   UNL     1      25.174 135.092   6.818  1.00  0.00     0.170 HD
BRANCH  20  22
ATOM     22  C   UNL     1      26.800 134.000   6.660  1.00  0.00     0.229 A 
ATOM     23  N   UNL     1      26.454 132.710   6.568  1.00  0.00    -0.221 NA
ATOM     24  N   UNL     1      27.940 134.404   7.233  1.00  0.00    -0.195 NA
ATOM     25  C   UNL     1      27.314 131.809   7.075  1.00  0.00     0.132 A 
ATOM     26  C   UNL     1      28.779 133.487   7.751  1.00  0.00     0.144 A 
ATOM     27  C   UNL     1      28.499 132.140   7.689  1.00  0.00     0.116 A 
BRANCH  26  28
ATOM     28  N   UNL     1      29.996 133.941   8.309  1.00  0.00    -0.367 N 
ATOM     29  H   UNL     1      30.047 133.699   9.298  1.00  0.00     0.162 HD
BRANCH  28  30
ATOM     30  C   UNL     1      30.512 135.262   8.047  1.00  0.00     0.080 C 
ATOM     31  C   UNL     1      31.909 135.223   7.389  1.00  0.00     0.025 C 
ATOM     32  C   UNL     1      31.176 135.920   9.278  1.00  0.00     0.025 C 
ATOM     33  C   UNL     1      32.527 135.358   8.794  1.00  0.00     0.004 C 
ENDBRANCH  28  30
ENDBRANCH  26  28
BRANCH  27  34
ATOM     34  C   UNL     1      29.412 131.090   8.199  1.00  0.00     0.421 C 
ATOM     35  F   UNL     1      30.096 131.466   9.312  1.00  0.00    -0.166 F 
ATOM     36  F   UNL     1      30.363 130.725   7.291  1.00  0.00    -0.166 F 
ATOM     37  F   UNL     1      28.768 129.930   8.523  1.00  0.00    -0.166 F 
ENDBRANCH  27  34
ENDBRANCH  20  22
ENDBRANCH   8  20
TORSDOF 8
ENDMDL
