MODEL 1
REMARK VINA RESULT:     -11.9      0.000      0.000
REMARK SMILES CC(=O)Nc1cc2ccc(-c3cc(F)ccc3C)cc2cn1
REMARK SMILES IDX 5 1 6 2 7 3 8 4 9 5 10 6 19 7 20 8 21 9 22 10 4 11 2 12 3 13
REMARK SMILES IDX 1 14 11 16 12 17 17 18 13 19 16 20 15 21 18 22 14 23
REMARK H PARENT 4 15
ROOT
ATOM      1  C   UNL     1     -47.113  14.691 -15.749  1.00  0.00     0.133 A 
ATOM      2  C   UNL     1     -47.854  15.786 -16.172  1.00  0.00     0.056 A 
ATOM      3  C   UNL     1     -47.231  16.779 -16.944  1.00  0.00    -0.013 A 
ATOM      4  C   UNL     1     -47.928  17.908 -17.400  1.00  0.00     0.009 A 
ATOM      5  C   UNL     1     -47.282  18.882 -18.168  1.00  0.00     0.009 A 
ATOM      6  C   UNL     1     -45.926  18.754 -18.496  1.00  0.00    -0.017 A 
ATOM      7  C   UNL     1     -45.230  17.624 -18.045  1.00  0.00     0.019 A 
ATOM      8  C   UNL     1     -45.872  16.638 -17.271  1.00  0.00     0.001 A 
ATOM      9  C   UNL     1     -45.221  15.500 -16.799  1.00  0.00     0.122 A 
ATOM     10  N   UNL     1     -45.807  14.533 -16.051  1.00  0.00    -0.238 NA
ENDROOT
BRANCH   1  11
ATOM     11  N   UNL     1     -47.623  13.644 -14.980  1.00  0.00    -0.311 N 
ATOM     12  C   UNL     1     -48.911  13.173 -14.927  1.00  0.00     0.222 C 
ATOM     13  O   UNL     1     -49.876  13.608 -15.548  1.00  0.00    -0.275 OA
ATOM     14  C   UNL     1     -49.073  12.023 -13.964  1.00  0.00     0.114 C 
ATOM     15  H   UNL     1     -46.911  13.221 -14.402  1.00  0.00     0.171 HD
ENDBRANCH   1  11
BRANCH   6  16
ATOM     16  C   UNL     1     -45.250  19.776 -19.304  1.00  0.00    -0.013 A 
ATOM     17  C   UNL     1     -44.748  20.924 -18.669  1.00  0.00     0.048 A 
ATOM     18  C   UNL     1     -45.089  19.646 -20.705  1.00  0.00    -0.043 A 
ATOM     19  C   UNL     1     -44.102  21.911 -19.405  1.00  0.00     0.123 A 
ATOM     20  C   UNL     1     -44.430  20.657 -21.426  1.00  0.00     0.007 A 
ATOM     21  C   UNL     1     -43.939  21.788 -20.776  1.00  0.00     0.039 A 
ATOM     22  C   UNL     1     -45.605  18.438 -21.444  1.00  0.00     0.045 C 
ATOM     23  F   UNL     1     -43.629  22.997 -18.780  1.00  0.00    -0.207 F 
ENDBRANCH   6  16
TORSDOF 2
ENDMDL
MODEL 2
REMARK VINA RESULT:     -11.8      1.478      2.051
REMARK SMILES CC(=O)Nc1cc2ccc(-c3cc(F)ccc3C)cc2cn1
REMARK SMILES IDX 5 1 6 2 7 3 8 4 9 5 10 6 19 7 20 8 21 9 22 10 4 11 2 12 3 13
REMARK SMILES IDX 1 14 11 16 12 17 17 18 13 19 16 20 15 21 18 22 14 23
REMARK H PARENT 4 15
ROOT
ATOM      1  C   UNL     1     -47.478  15.445 -15.643  1.00  0.00     0.133 A 
ATOM      2  C   UNL     1     -48.088  16.576 -16.166  1.00  0.00     0.056 A 
ATOM      3  C   UNL     1     -47.402  17.347 -17.117  1.00  0.00    -0.013 A 
ATOM      4  C   UNL     1     -47.966  18.501 -17.682  1.00  0.00     0.009 A 
ATOM      5  C   UNL     1     -47.259  19.250 -18.628  1.00  0.00     0.009 A 
ATOM      6  C   UNL     1     -45.974  18.868 -19.030  1.00  0.00    -0.017 A 
ATOM      7  C   UNL     1     -45.411  17.712 -18.471  1.00  0.00     0.019 A 
ATOM      8  C   UNL     1     -46.115  16.952 -17.517  1.00  0.00     0.001 A 
ATOM      9  C   UNL     1     -45.595  15.798 -16.932  1.00  0.00     0.122 A 
ATOM     10  N   UNL     1     -46.244  15.044 -16.012  1.00  0.00    -0.238 NA
ENDROOT
BRANCH   1  11
ATOM     11  N   UNL     1     -48.061  14.603 -14.695  1.00  0.00    -0.311 N 
ATOM     12  C   UNL     1     -49.197  13.840 -14.814  1.00  0.00     0.222 C 
ATOM     13  O   UNL     1     -49.932  13.771 -15.793  1.00  0.00    -0.275 OA
ATOM     14  C   UNL     1     -49.512  13.062 -13.560  1.00  0.00     0.114 C 
ATOM     15  H   UNL     1     -47.545  14.600 -13.827  1.00  0.00     0.171 HD
ENDBRANCH   1  11
BRANCH   6  16
ATOM     16  C   UNL     1     -45.234  19.654 -20.026  1.00  0.00    -0.013 A 
ATOM     17  C   UNL     1     -45.356  19.319 -21.385  1.00  0.00     0.048 A 
ATOM     18  C   UNL     1     -44.399  20.738 -19.662  1.00  0.00    -0.043 A 
ATOM     19  C   UNL     1     -44.670  20.044 -22.353  1.00  0.00     0.123 A 
ATOM     20  C   UNL     1     -43.718  21.456 -20.660  1.00  0.00     0.007 A 
ATOM     21  C   UNL     1     -43.853  21.107 -22.003  1.00  0.00     0.039 A 
ATOM     22  C   UNL     1     -44.228  21.147 -18.222  1.00  0.00     0.045 C 
ATOM     23  F   UNL     1     -44.801  19.709 -23.643  1.00  0.00    -0.207 F 
ENDBRANCH   6  16
TORSDOF 2
ENDMDL
MODEL 3
REMARK VINA RESULT:      -9.3      1.607      2.501
REMARK SMILES CC(=O)Nc1cc2ccc(-c3cc(F)ccc3C)cc2cn1
REMARK SMILES IDX 5 1 6 2 7 3 8 4 9 5 10 6 19 7 20 8 21 9 22 10 4 11 2 12 3 13
REMARK SMILES IDX 1 14 11 16 12 17 17 18 13 19 16 20 15 21 18 22 14 23
REMARK H PARENT 4 15
ROOT
ATOM      1  C   UNL     1     -47.408  13.998 -15.027  1.00  0.00     0.133 A 
ATOM      2  C   UNL     1     -46.206  14.384 -15.601  1.00  0.00     0.056 A 
ATOM      3  C   UNL     1     -46.183  15.488 -16.468  1.00  0.00    -0.013 A 
ATOM      4  C   UNL     1     -44.998  15.926 -17.079  1.00  0.00     0.009 A 
ATOM      5  C   UNL     1     -45.006  17.029 -17.939  1.00  0.00     0.009 A 
ATOM      6  C   UNL     1     -46.194  17.718 -18.212  1.00  0.00    -0.017 A 
ATOM      7  C   UNL     1     -47.378  17.283 -17.598  1.00  0.00     0.019 A 
ATOM      8  C   UNL     1     -47.380  16.174 -16.731  1.00  0.00     0.001 A 
ATOM      9  C   UNL     1     -48.531  15.706 -16.101  1.00  0.00     0.122 A 
ATOM     10  N   UNL     1     -48.570  14.641 -15.263  1.00  0.00    -0.238 NA
ENDROOT
BRANCH   1  11
ATOM     11  N   UNL     1     -47.552  12.920 -14.151  1.00  0.00    -0.311 N 
ATOM     12  C   UNL     1     -48.594  12.031 -14.056  1.00  0.00     0.222 C 
ATOM     13  O   UNL     1     -49.620  12.032 -14.728  1.00  0.00    -0.275 OA
ATOM     14  C   UNL     1     -48.386  11.001 -12.974  1.00  0.00     0.114 C 
ATOM     15  H   UNL     1     -46.764  12.837 -13.525  1.00  0.00     0.171 HD
ENDBRANCH   1  11
BRANCH   6  16
ATOM     16  C   UNL     1     -46.200  18.877 -19.113  1.00  0.00    -0.013 A 
ATOM     17  C   UNL     1     -45.088  19.099 -19.943  1.00  0.00     0.048 A 
ATOM     18  C   UNL     1     -47.287  19.781 -19.172  1.00  0.00    -0.043 A 
ATOM     19  C   UNL     1     -45.061  20.187 -20.808  1.00  0.00     0.123 A 
ATOM     20  C   UNL     1     -47.237  20.872 -20.057  1.00  0.00     0.007 A 
ATOM     21  C   UNL     1     -46.124  21.075 -20.872  1.00  0.00     0.039 A 
ATOM     22  C   UNL     1     -48.509  19.597 -18.308  1.00  0.00     0.045 C 
ATOM     23  F   UNL     1     -43.993  20.380 -21.591  1.00  0.00    -0.207 F 
ENDBRANCH   6  16
TORSDOF 2
ENDMDL
MODEL 4
REMARK VINA RESULT:      -9.3      2.900      4.709
REMARK SMILES CC(=O)Nc1cc2ccc(-c3cc(F)ccc3C)cc2cn1
REMARK SMILES IDX 5 1 6 2 7 3 8 4 9 5 10 6 19 7 20 8 21 9 22 10 4 11 2 12 3 13
REMARK SMILES IDX 1 14 11 16 12 17 17 18 13 19 16 20 15 21 18 22 14 23
REMARK H PARENT 4 15
ROOT
ATOM      1  C   UNL     1     -49.370  11.940 -13.434  1.00  0.00     0.133 A 
ATOM      2  C   UNL     1     -48.067  12.146 -13.865  1.00  0.00     0.056 A 
ATOM      3  C   UNL     1     -47.774  13.275 -14.645  1.00  0.00    -0.013 A 
ATOM      4  C   UNL     1     -46.476  13.537 -15.110  1.00  0.00     0.009 A 
ATOM      5  C   UNL     1     -46.213  14.670 -15.886  1.00  0.00     0.009 A 
ATOM      6  C   UNL     1     -47.236  15.566 -16.218  1.00  0.00    -0.017 A 
ATOM      7  C   UNL     1     -48.532  15.308 -15.749  1.00  0.00     0.019 A 
ATOM      8  C   UNL     1     -48.807  14.170 -14.968  1.00  0.00     0.001 A 
ATOM      9  C   UNL     1     -50.079  13.871 -14.482  1.00  0.00     0.122 A 
ATOM     10  N   UNL     1     -50.379  12.785 -13.730  1.00  0.00    -0.238 NA
ENDROOT
BRANCH   1  11
ATOM     11  N   UNL     1     -49.780  10.856 -12.655  1.00  0.00    -0.311 N 
ATOM     12  C   UNL     1     -49.955  10.801 -11.294  1.00  0.00     0.222 C 
ATOM     13  O   UNL     1     -49.762  11.711 -10.494  1.00  0.00    -0.275 OA
ATOM     14  C   UNL     1     -50.404   9.442 -10.818  1.00  0.00     0.114 C 
ATOM     15  H   UNL     1     -49.946  10.033 -13.215  1.00  0.00     0.171 HD
ENDBRANCH   1  11
BRANCH   6  16
ATOM     16  C   UNL     1     -46.957  16.757 -17.030  1.00  0.00    -0.013 A 
ATOM     17  C   UNL     1     -47.984  17.691 -17.244  1.00  0.00     0.048 A 
ATOM     18  C   UNL     1     -45.686  16.995 -17.607  1.00  0.00    -0.043 A 
ATOM     19  C   UNL     1     -47.753  18.829 -18.008  1.00  0.00     0.123 A 
ATOM     20  C   UNL     1     -45.478  18.155 -18.374  1.00  0.00     0.007 A 
ATOM     21  C   UNL     1     -46.511  19.069 -18.574  1.00  0.00     0.039 A 
ATOM     22  C   UNL     1     -44.543  16.032 -17.413  1.00  0.00     0.045 C 
ATOM     23  F   UNL     1     -48.746  19.707 -18.200  1.00  0.00    -0.207 F 
ENDBRANCH   6  16
TORSDOF 2
ENDMDL
MODEL 5
REMARK VINA RESULT:      -9.2     25.066     27.410
REMARK SMILES CC(=O)Nc1cc2ccc(-c3cc(F)ccc3C)cc2cn1
REMARK SMILES IDX 5 1 6 2 7 3 8 4 9 5 10 6 19 7 20 8 21 9 22 10 4 11 2 12 3 13
REMARK SMILES IDX 1 14 11 16 12 17 17 18 13 19 16 20 15 21 18 22 14 23
REMARK H PARENT 4 15
ROOT
ATOM      1  C   UNL     1     -40.427  22.999   6.265  1.00  0.00     0.133 A 
ATOM      2  C   UNL     1     -41.517  23.340   7.053  1.00  0.00     0.056 A 
ATOM      3  C   UNL     1     -42.224  22.328   7.719  1.00  0.00    -0.013 A 
ATOM      4  C   UNL     1     -43.335  22.612   8.530  1.00  0.00     0.009 A 
ATOM      5  C   UNL     1     -44.022  21.583   9.182  1.00  0.00     0.009 A 
ATOM      6  C   UNL     1     -43.620  20.249   9.039  1.00  0.00    -0.017 A 
ATOM      7  C   UNL     1     -42.508  19.965   8.233  1.00  0.00     0.019 A 
ATOM      8  C   UNL     1     -41.811  20.994   7.572  1.00  0.00     0.001 A 
ATOM      9  C   UNL     1     -40.702  20.761   6.760  1.00  0.00     0.122 A 
ATOM     10  N   UNL     1     -40.009  21.726   6.109  1.00  0.00    -0.238 NA
ENDROOT
BRANCH   1  11
ATOM     11  N   UNL     1     -39.648  23.916   5.557  1.00  0.00    -0.311 N 
ATOM     12  C   UNL     1     -39.389  23.956   4.210  1.00  0.00     0.222 C 
ATOM     13  O   UNL     1     -39.790  23.164   3.364  1.00  0.00    -0.275 OA
ATOM     14  C   UNL     1     -38.491  25.105   3.822  1.00  0.00     0.114 C 
ATOM     15  H   UNL     1     -39.241  24.612   6.167  1.00  0.00     0.171 HD
ENDBRANCH   1  11
BRANCH   6  16
ATOM     16  C   UNL     1     -44.341  19.171   9.726  1.00  0.00    -0.013 A 
ATOM     17  C   UNL     1     -45.487  19.487  10.475  1.00  0.00     0.048 A 
ATOM     18  C   UNL     1     -43.918  17.821   9.663  1.00  0.00    -0.043 A 
ATOM     19  C   UNL     1     -46.193  18.489  11.138  1.00  0.00     0.123 A 
ATOM     20  C   UNL     1     -44.651  16.830  10.341  1.00  0.00     0.007 A 
ATOM     21  C   UNL     1     -45.785  17.166  11.077  1.00  0.00     0.039 A 
ATOM     22  C   UNL     1     -42.698  17.417   8.876  1.00  0.00     0.045 C 
ATOM     23  F   UNL     1     -47.284  18.812  11.844  1.00  0.00    -0.207 F 
ENDBRANCH   6  16
TORSDOF 2
ENDMDL
