MODEL 1
REMARK VINA RESULT:      -9.4      0.000      0.000
REMARK SMILES C#Cc1cc(OC)c(-c2ccc3nc(NC(=O)NCO)sc3c2)cc1C=O
REMARK SMILES IDX 9 1 10 2 11 3 12 4 13 5 14 6 21 7 22 8 23 9 8 10 2 11 3 12
REMARK SMILES IDX 4 13 25 14 5 15 24 16 1 17 26 18 27 19 6 20 7 21 15 22 16 23
REMARK SMILES IDX 17 24 18 25 19 28 20 29
REMARK H PARENT 15 26 18 27 20 30
ROOT
ATOM      1  C   UNL     1     -45.715  19.194 -19.119  1.00  0.00    -0.013 A 
ATOM      2  C   UNL     1     -45.375  18.957 -20.459  1.00  0.00     0.011 A 
ATOM      3  C   UNL     1     -44.733  19.934 -21.232  1.00  0.00     0.030 A 
ATOM      4  C   UNL     1     -44.421  21.182 -20.663  1.00  0.00     0.084 A 
ATOM      5  N   UNL     1     -43.793  22.234 -21.305  1.00  0.00    -0.220 NA
ATOM      6  C   UNL     1     -43.660  23.234 -20.476  1.00  0.00     0.191 A 
ATOM      7  S   UNL     1     -44.272  23.010 -18.901  1.00  0.00    -0.097 S 
ATOM      8  C   UNL     1     -44.763  21.415 -19.330  1.00  0.00     0.057 A 
ATOM      9  C   UNL     1     -45.404  20.440 -18.545  1.00  0.00     0.030 A 
ENDROOT
BRANCH   1  10
ATOM     10  C   UNL     1     -46.375  18.145 -18.318  1.00  0.00     0.025 A 
ATOM     11  C   UNL     1     -48.218  15.104 -15.970  1.00  0.00    -0.070 C 
ATOM     12  C   UNL     1     -47.545  16.105 -16.746  1.00  0.00     0.038 A 
ATOM     13  C   UNL     1     -48.347  17.037 -17.424  1.00  0.00     0.065 A 
ATOM     14  C   UNL     1     -46.153  16.190 -16.853  1.00  0.00     0.031 A 
ATOM     15  C   UNL     1     -47.779  18.050 -18.207  1.00  0.00     0.127 A 
ATOM     16  C   UNL     1     -45.579  17.205 -17.635  1.00  0.00     0.025 A 
ATOM     17  C   UNL     1     -48.794  14.271 -15.324  1.00  0.00     0.010 C 
BRANCH  14  18
ATOM     18  C   UNL     1     -45.207  15.261 -16.180  1.00  0.00     0.261 C 
ATOM     19  O   UNL     1     -45.338  14.047 -16.131  1.00  0.00    -0.298 OA
ENDBRANCH  14  18
BRANCH  15  20
ATOM     20  O   UNL     1     -48.505  18.987 -18.899  1.00  0.00    -0.496 OA
ATOM     21  C   UNL     1     -48.736  20.243 -18.274  1.00  0.00     0.278 C 
ENDBRANCH  15  20
ENDBRANCH   1  10
BRANCH   6  22
ATOM     22  N   UNL     1     -43.108  24.466 -20.684  1.00  0.00    -0.284 N 
ATOM     23  C   UNL     1     -42.613  25.236 -19.665  1.00  0.00     0.322 C 
ATOM     24  O   UNL     1     -42.632  24.989 -18.467  1.00  0.00    -0.248 OA
ATOM     25  N   UNL     1     -42.054  26.401 -20.154  1.00  0.00    -0.315 N 
ATOM     26  H   UNL     1     -43.212  24.866 -21.601  1.00  0.00     0.174 HD
ATOM     27  H   UNL     1     -41.569  26.314 -21.033  1.00  0.00     0.167 HD
BRANCH  25  28
ATOM     28  C   UNL     1     -41.454  27.327 -19.247  1.00  0.00     0.277 C 
BRANCH  28  29
ATOM     29  O   UNL     1     -40.383  26.651 -18.634  1.00  0.00    -0.376 OA
ATOM     30  H   UNL     1     -39.783  26.433 -19.374  1.00  0.00     0.212 HD
ENDBRANCH  28  29
ENDBRANCH  25  28
ENDBRANCH   6  22
TORSDOF 6
ENDMDL
MODEL 2
REMARK VINA RESULT:      -8.9     25.531     27.267
REMARK SMILES C#Cc1cc(OC)c(-c2ccc3nc(NC(=O)NCO)sc3c2)cc1C=O
REMARK SMILES IDX 9 1 10 2 11 3 12 4 13 5 14 6 21 7 22 8 23 9 8 10 2 11 3 12
REMARK SMILES IDX 4 13 25 14 5 15 24 16 1 17 26 18 27 19 6 20 7 21 15 22 16 23
REMARK SMILES IDX 17 24 18 25 19 28 20 29
REMARK H PARENT 15 26 18 27 20 30
ROOT
ATOM      1  C   UNL     1     -44.650  19.386   9.028  1.00  0.00    -0.013 A 
ATOM      2  C   UNL     1     -43.626  18.456   8.795  1.00  0.00     0.011 A 
ATOM      3  C   UNL     1     -42.385  18.852   8.280  1.00  0.00     0.030 A 
ATOM      4  C   UNL     1     -42.151  20.207   7.984  1.00  0.00     0.084 A 
ATOM      5  N   UNL     1     -40.979  20.737   7.474  1.00  0.00    -0.220 NA
ATOM      6  C   UNL     1     -41.113  22.028   7.326  1.00  0.00     0.191 A 
ATOM      7  S   UNL     1     -42.619  22.698   7.763  1.00  0.00    -0.097 S 
ATOM      8  C   UNL     1     -43.173  21.130   8.214  1.00  0.00     0.057 A 
ATOM      9  C   UNL     1     -44.421  20.743   8.734  1.00  0.00     0.030 A 
ENDROOT
BRANCH   1  10
ATOM     10  C   UNL     1     -45.945  18.950   9.586  1.00  0.00     0.025 A 
ATOM     11  C   UNL     1     -49.717  17.719  11.138  1.00  0.00    -0.070 C 
ATOM     12  C   UNL     1     -48.476  18.169  10.579  1.00  0.00     0.038 A 
ATOM     13  C   UNL     1     -47.296  17.630  11.117  1.00  0.00     0.065 A 
ATOM     14  C   UNL     1     -48.393  19.104   9.541  1.00  0.00     0.031 A 
ATOM     15  C   UNL     1     -46.038  18.010  10.635  1.00  0.00     0.127 A 
ATOM     16  C   UNL     1     -47.133  19.487   9.053  1.00  0.00     0.025 A 
ATOM     17  C   UNL     1     -50.750  17.333  11.616  1.00  0.00     0.010 C 
BRANCH  14  18
ATOM     18  C   UNL     1     -49.571  19.739   8.895  1.00  0.00     0.261 C 
ATOM     19  O   UNL     1     -50.163  19.286   7.926  1.00  0.00    -0.298 OA
ENDBRANCH  14  18
BRANCH  15  20
ATOM     20  O   UNL     1     -44.849  17.527  11.120  1.00  0.00    -0.496 OA
ATOM     21  C   UNL     1     -44.736  16.125  11.328  1.00  0.00     0.278 C 
ENDBRANCH  15  20
ENDBRANCH   1  10
BRANCH   6  22
ATOM     22  N   UNL     1     -40.218  22.944   6.849  1.00  0.00    -0.284 N 
ATOM     23  C   UNL     1     -39.983  23.120   5.511  1.00  0.00     0.322 C 
ATOM     24  O   UNL     1     -40.461  22.486   4.580  1.00  0.00    -0.248 OA
ATOM     25  N   UNL     1     -39.087  24.151   5.299  1.00  0.00    -0.315 N 
ATOM     26  H   UNL     1     -39.617  23.390   7.520  1.00  0.00     0.174 HD
ATOM     27  H   UNL     1     -39.171  24.934   5.928  1.00  0.00     0.167 HD
BRANCH  25  28
ATOM     28  C   UNL     1     -38.734  24.512   3.964  1.00  0.00     0.277 C 
BRANCH  28  29
ATOM     29  O   UNL     1     -39.895  25.041   3.371  1.00  0.00    -0.376 OA
ATOM     30  H   UNL     1     -39.592  25.370   2.503  1.00  0.00     0.212 HD
ENDBRANCH  28  29
ENDBRANCH  25  28
ENDBRANCH   6  22
TORSDOF 6
ENDMDL
MODEL 3
REMARK VINA RESULT:      -8.8     25.600     27.371
REMARK SMILES C#Cc1cc(OC)c(-c2ccc3nc(NC(=O)NCO)sc3c2)cc1C=O
REMARK SMILES IDX 9 1 10 2 11 3 12 4 13 5 14 6 21 7 22 8 23 9 8 10 2 11 3 12
REMARK SMILES IDX 4 13 25 14 5 15 24 16 1 17 26 18 27 19 6 20 7 21 15 22 16 23
REMARK SMILES IDX 17 24 18 25 19 28 20 29
REMARK H PARENT 15 26 18 27 20 30
ROOT
ATOM      1  C   UNL     1     -43.911  18.896   9.387  1.00  0.00    -0.013 A 
ATOM      2  C   UNL     1     -44.565  20.043   9.859  1.00  0.00     0.011 A 
ATOM      3  C   UNL     1     -44.158  21.327   9.471  1.00  0.00     0.030 A 
ATOM      4  C   UNL     1     -43.071  21.480   8.592  1.00  0.00     0.084 A 
ATOM      5  N   UNL     1     -42.563  22.680   8.128  1.00  0.00    -0.220 NA
ATOM      6  C   UNL     1     -41.558  22.448   7.328  1.00  0.00     0.191 A 
ATOM      7  S   UNL     1     -41.136  20.814   7.080  1.00  0.00    -0.097 S 
ATOM      8  C   UNL     1     -42.420  20.336   8.126  1.00  0.00     0.057 A 
ATOM      9  C   UNL     1     -42.823  19.043   8.507  1.00  0.00     0.030 A 
ENDROOT
BRANCH   1  10
ATOM     10  C   UNL     1     -44.366  17.553   9.795  1.00  0.00     0.025 A 
ATOM     11  C   UNL     1     -45.747  13.691  10.948  1.00  0.00    -0.070 C 
ATOM     12  C   UNL     1     -45.338  15.008  10.557  1.00  0.00     0.038 A 
ATOM     13  C   UNL     1     -43.959  15.253  10.470  1.00  0.00     0.065 A 
ATOM     14  C   UNL     1     -46.238  16.039  10.263  1.00  0.00     0.031 A 
ATOM     15  C   UNL     1     -43.465  16.509  10.096  1.00  0.00     0.127 A 
ATOM     16  C   UNL     1     -45.748  17.300   9.886  1.00  0.00     0.025 A 
ATOM     17  C   UNL     1     -46.077  12.584  11.277  1.00  0.00     0.010 C 
BRANCH  14  18
ATOM     18  C   UNL     1     -47.717  15.896  10.319  1.00  0.00     0.261 C 
ATOM     19  O   UNL     1     -48.508  16.586   9.694  1.00  0.00    -0.298 OA
ENDBRANCH  14  18
BRANCH  15  20
ATOM     20  O   UNL     1     -42.131  16.814   9.998  1.00  0.00    -0.496 OA
ATOM     21  C   UNL     1     -41.199  15.927  10.602  1.00  0.00     0.278 C 
ENDBRANCH  15  20
ENDBRANCH   1  10
BRANCH   6  22
ATOM     22  N   UNL     1     -40.761  23.331   6.656  1.00  0.00    -0.284 N 
ATOM     23  C   UNL     1     -40.858  23.533   5.305  1.00  0.00     0.322 C 
ATOM     24  O   UNL     1     -41.588  22.952   4.514  1.00  0.00    -0.248 OA
ATOM     25  N   UNL     1     -39.987  24.523   4.891  1.00  0.00    -0.315 N 
ATOM     26  H   UNL     1     -39.987  23.727   7.161  1.00  0.00     0.174 HD
ATOM     27  H   UNL     1     -39.867  25.291   5.532  1.00  0.00     0.167 HD
BRANCH  25  28
ATOM     28  C   UNL     1     -39.959  24.905   3.515  1.00  0.00     0.277 C 
BRANCH  28  29
ATOM     29  O   UNL     1     -41.269  25.293   3.180  1.00  0.00    -0.376 OA
ATOM     30  H   UNL     1     -41.596  25.748   3.980  1.00  0.00     0.212 HD
ENDBRANCH  28  29
ENDBRANCH  25  28
ENDBRANCH   6  22
TORSDOF 6
ENDMDL
MODEL 4
REMARK VINA RESULT:      -8.8     25.720     27.395
REMARK SMILES C#Cc1cc(OC)c(-c2ccc3nc(NC(=O)NCO)sc3c2)cc1C=O
REMARK SMILES IDX 9 1 10 2 11 3 12 4 13 5 14 6 21 7 22 8 23 9 8 10 2 11 3 12
REMARK SMILES IDX 4 13 25 14 5 15 24 16 1 17 26 18 27 19 6 20 7 21 15 22 16 23
REMARK SMILES IDX 17 24 18 25 19 28 20 29
REMARK H PARENT 15 26 18 27 20 30
ROOT
ATOM      1  C   UNL     1     -43.969  19.028   9.512  1.00  0.00    -0.013 A 
ATOM      2  C   UNL     1     -44.615  20.200   9.929  1.00  0.00     0.011 A 
ATOM      3  C   UNL     1     -44.197  21.462   9.486  1.00  0.00     0.030 A 
ATOM      4  C   UNL     1     -43.104  21.566   8.605  1.00  0.00     0.084 A 
ATOM      5  N   UNL     1     -42.585  22.739   8.089  1.00  0.00    -0.220 NA
ATOM      6  C   UNL     1     -41.579  22.463   7.305  1.00  0.00     0.191 A 
ATOM      7  S   UNL     1     -41.170  20.817   7.133  1.00  0.00    -0.097 S 
ATOM      8  C   UNL     1     -42.461  20.397   8.194  1.00  0.00     0.057 A 
ATOM      9  C   UNL     1     -42.876  19.126   8.631  1.00  0.00     0.030 A 
ENDROOT
BRANCH   1  10
ATOM     10  C   UNL     1     -44.436  17.708   9.979  1.00  0.00     0.025 A 
ATOM     11  C   UNL     1     -45.721  13.888  11.361  1.00  0.00    -0.070 C 
ATOM     12  C   UNL     1     -45.233  15.158  10.907  1.00  0.00     0.038 A 
ATOM     13  C   UNL     1     -46.182  16.079  10.437  1.00  0.00     0.065 A 
ATOM     14  C   UNL     1     -43.879  15.509  10.913  1.00  0.00     0.031 A 
ATOM     15  C   UNL     1     -45.800  17.344   9.974  1.00  0.00     0.127 A 
ATOM     16  C   UNL     1     -43.490  16.777  10.451  1.00  0.00     0.025 A 
ATOM     17  C   UNL     1     -46.143  12.828  11.738  1.00  0.00     0.010 C 
BRANCH  14  18
ATOM     18  C   UNL     1     -42.788  14.618  11.388  1.00  0.00     0.261 C 
ATOM     19  O   UNL     1     -42.002  14.029  10.660  1.00  0.00    -0.298 OA
ENDBRANCH  14  18
BRANCH  15  20
ATOM     20  O   UNL     1     -46.675  18.287   9.497  1.00  0.00    -0.496 OA
ATOM     21  C   UNL     1     -48.038  18.188   9.890  1.00  0.00     0.278 C 
ENDBRANCH  15  20
ENDBRANCH   1  10
BRANCH   6  22
ATOM     22  N   UNL     1     -40.772  23.309   6.597  1.00  0.00    -0.284 N 
ATOM     23  C   UNL     1     -40.923  23.521   5.252  1.00  0.00     0.322 C 
ATOM     24  O   UNL     1     -41.719  22.980   4.496  1.00  0.00    -0.248 OA
ATOM     25  N   UNL     1     -40.026  24.469   4.798  1.00  0.00    -0.315 N 
ATOM     26  H   UNL     1     -39.956  23.664   7.065  1.00  0.00     0.174 HD
ATOM     27  H   UNL     1     -39.837  25.227   5.435  1.00  0.00     0.167 HD
BRANCH  25  28
ATOM     28  C   UNL     1     -40.044  24.854   3.423  1.00  0.00     0.277 C 
BRANCH  28  29
ATOM     29  O   UNL     1     -41.347  25.312   3.153  1.00  0.00    -0.376 OA
ATOM     30  H   UNL     1     -41.787  24.548   2.731  1.00  0.00     0.212 HD
ENDBRANCH  28  29
ENDBRANCH  25  28
ENDBRANCH   6  22
TORSDOF 6
ENDMDL
MODEL 5
REMARK VINA RESULT:      -8.7     26.093     27.806
REMARK SMILES C#Cc1cc(OC)c(-c2ccc3nc(NC(=O)NCO)sc3c2)cc1C=O
REMARK SMILES IDX 9 1 10 2 11 3 12 4 13 5 14 6 21 7 22 8 23 9 8 10 2 11 3 12
REMARK SMILES IDX 4 13 25 14 5 15 24 16 1 17 26 18 27 19 6 20 7 21 15 22 16 23
REMARK SMILES IDX 17 24 18 25 19 28 20 29
REMARK H PARENT 15 26 18 27 20 30
ROOT
ATOM      1  C   UNL     1     -44.796  18.831   9.679  1.00  0.00    -0.013 A 
ATOM      2  C   UNL     1     -43.790  17.960   9.237  1.00  0.00     0.011 A 
ATOM      3  C   UNL     1     -42.667  18.433   8.545  1.00  0.00     0.030 A 
ATOM      4  C   UNL     1     -42.537  19.808   8.281  1.00  0.00     0.084 A 
ATOM      5  N   UNL     1     -41.488  20.412   7.612  1.00  0.00    -0.220 NA
ATOM      6  C   UNL     1     -41.693  21.700   7.551  1.00  0.00     0.191 A 
ATOM      7  S   UNL     1     -43.130  22.282   8.261  1.00  0.00    -0.097 S 
ATOM      8  C   UNL     1     -43.542  20.673   8.721  1.00  0.00     0.057 A 
ATOM      9  C   UNL     1     -44.671  20.208   9.418  1.00  0.00     0.030 A 
ENDROOT
BRANCH   1  10
ATOM     10  C   UNL     1     -45.962  18.314  10.421  1.00  0.00     0.025 A 
ATOM     11  C   UNL     1     -49.284  16.782  12.606  1.00  0.00    -0.070 C 
ATOM     12  C   UNL     1     -48.133  17.254  11.893  1.00  0.00     0.038 A 
ATOM     13  C   UNL     1     -48.307  18.372  11.062  1.00  0.00     0.065 A 
ATOM     14  C   UNL     1     -46.870  16.661  11.990  1.00  0.00     0.031 A 
ATOM     15  C   UNL     1     -47.241  18.904  10.326  1.00  0.00     0.127 A 
ATOM     16  C   UNL     1     -45.797  17.192  11.256  1.00  0.00     0.025 A 
ATOM     17  C   UNL     1     -50.256  16.396  13.196  1.00  0.00     0.010 C 
BRANCH  14  18
ATOM     18  C   UNL     1     -46.567  15.478  12.838  1.00  0.00     0.261 C 
ATOM     19  O   UNL     1     -45.520  14.849  12.808  1.00  0.00    -0.298 OA
ENDBRANCH  14  18
BRANCH  15  20
ATOM     20  O   UNL     1     -47.345  19.989   9.492  1.00  0.00    -0.496 OA
ATOM     21  C   UNL     1     -48.363  19.969   8.500  1.00  0.00     0.278 C 
ENDBRANCH  15  20
ENDBRANCH   1  10
BRANCH   6  22
ATOM     22  N   UNL     1     -40.925  22.675   6.980  1.00  0.00    -0.284 N 
ATOM     23  C   UNL     1     -41.004  22.992   5.649  1.00  0.00     0.322 C 
ATOM     24  O   UNL     1     -41.689  22.451   4.793  1.00  0.00    -0.248 OA
ATOM     25  N   UNL     1     -40.174  24.054   5.345  1.00  0.00    -0.315 N 
ATOM     26  H   UNL     1     -40.182  23.060   7.537  1.00  0.00     0.174 HD
ATOM     27  H   UNL     1     -40.104  24.767   6.055  1.00  0.00     0.167 HD
BRANCH  25  28
ATOM     28  C   UNL     1     -40.135  24.557   4.009  1.00  0.00     0.277 C 
BRANCH  28  29
ATOM     29  O   UNL     1     -41.399  25.124   3.758  1.00  0.00    -0.376 OA
ATOM     30  H   UNL     1     -41.593  25.641   4.564  1.00  0.00     0.212 HD
ENDBRANCH  28  29
ENDBRANCH  25  28
ENDBRANCH   6  22
TORSDOF 6
ENDMDL
MODEL 6
REMARK VINA RESULT:      -8.2     26.291     28.219
REMARK SMILES C#Cc1cc(OC)c(-c2ccc3nc(NC(=O)NCO)sc3c2)cc1C=O
REMARK SMILES IDX 9 1 10 2 11 3 12 4 13 5 14 6 21 7 22 8 23 9 8 10 2 11 3 12
REMARK SMILES IDX 4 13 25 14 5 15 24 16 1 17 26 18 27 19 6 20 7 21 15 22 16 23
REMARK SMILES IDX 17 24 18 25 19 28 20 29
REMARK H PARENT 15 26 18 27 20 30
ROOT
ATOM      1  C   UNL     1     -44.586  17.796   9.897  1.00  0.00    -0.013 A 
ATOM      2  C   UNL     1     -43.540  17.171   9.201  1.00  0.00     0.011 A 
ATOM      3  C   UNL     1     -42.597  17.915   8.479  1.00  0.00     0.030 A 
ATOM      4  C   UNL     1     -42.694  19.318   8.442  1.00  0.00     0.084 A 
ATOM      5  N   UNL     1     -41.838  20.174   7.773  1.00  0.00    -0.220 NA
ATOM      6  C   UNL     1     -42.223  21.408   7.957  1.00  0.00     0.191 A 
ATOM      7  S   UNL     1     -43.616  21.642   8.913  1.00  0.00    -0.097 S 
ATOM      8  C   UNL     1     -43.737  19.936   9.133  1.00  0.00     0.057 A 
ATOM      9  C   UNL     1     -44.686  19.199   9.863  1.00  0.00     0.030 A 
ENDROOT
BRANCH   1  10
ATOM     10  C   UNL     1     -45.558  16.994  10.665  1.00  0.00     0.025 A 
ATOM     11  C   UNL     1     -48.419  14.699  12.833  1.00  0.00    -0.070 C 
ATOM     12  C   UNL     1     -47.500  15.499  12.076  1.00  0.00     0.038 A 
ATOM     13  C   UNL     1     -46.131  15.303  12.315  1.00  0.00     0.065 A 
ATOM     14  C   UNL     1     -47.904  16.446  11.129  1.00  0.00     0.031 A 
ATOM     15  C   UNL     1     -45.160  16.039  11.624  1.00  0.00     0.127 A 
ATOM     16  C   UNL     1     -46.934  17.185  10.432  1.00  0.00     0.025 A 
ATOM     17  C   UNL     1     -49.177  14.023  13.474  1.00  0.00     0.010 C 
BRANCH  14  18
ATOM     18  C   UNL     1     -49.322  16.737  10.792  1.00  0.00     0.261 C 
ATOM     19  O   UNL     1     -49.694  17.648  10.067  1.00  0.00    -0.298 OA
ENDBRANCH  14  18
BRANCH  15  20
ATOM     20  O   UNL     1     -43.808  15.901  11.815  1.00  0.00    -0.496 OA
ATOM     21  C   UNL     1     -43.327  14.645  12.275  1.00  0.00     0.278 C 
ENDBRANCH  15  20
ENDBRANCH   1  10
BRANCH   6  22
ATOM     22  N   UNL     1     -41.682  22.567   7.478  1.00  0.00    -0.284 N 
ATOM     23  C   UNL     1     -41.463  22.785   6.144  1.00  0.00     0.322 C 
ATOM     24  O   UNL     1     -41.651  22.005   5.220  1.00  0.00    -0.248 OA
ATOM     25  N   UNL     1     -40.972  24.058   5.926  1.00  0.00    -0.315 N 
ATOM     26  H   UNL     1     -41.302  23.209   8.153  1.00  0.00     0.174 HD
ATOM     27  H   UNL     1     -41.350  24.777   6.523  1.00  0.00     0.167 HD
BRANCH  25  28
ATOM     28  C   UNL     1     -40.707  24.490   4.591  1.00  0.00     0.277 C 
BRANCH  28  29
ATOM     29  O   UNL     1     -41.957  24.623   3.957  1.00  0.00    -0.376 OA
ATOM     30  H   UNL     1     -42.048  25.584   3.807  1.00  0.00     0.212 HD
ENDBRANCH  28  29
ENDBRANCH  25  28
ENDBRANCH   6  22
TORSDOF 6
ENDMDL
MODEL 7
REMARK VINA RESULT:      -7.9     27.340     29.725
REMARK SMILES C#Cc1cc(OC)c(-c2ccc3nc(NC(=O)NCO)sc3c2)cc1C=O
REMARK SMILES IDX 9 1 10 2 11 3 12 4 13 5 14 6 21 7 22 8 23 9 8 10 2 11 3 12
REMARK SMILES IDX 4 13 25 14 5 15 24 16 1 17 26 18 27 19 6 20 7 21 15 22 16 23
REMARK SMILES IDX 17 24 18 25 19 28 20 29
REMARK H PARENT 15 26 18 27 20 30
ROOT
ATOM      1  C   UNL     1     -45.850  19.128   9.952  1.00  0.00    -0.013 A 
ATOM      2  C   UNL     1     -45.792  18.416  11.159  1.00  0.00     0.011 A 
ATOM      3  C   UNL     1     -46.955  17.983  11.808  1.00  0.00     0.030 A 
ATOM      4  C   UNL     1     -48.215  18.266  11.248  1.00  0.00     0.084 A 
ATOM      5  N   UNL     1     -49.440  17.903  11.777  1.00  0.00    -0.220 NA
ATOM      6  C   UNL     1     -50.395  18.326  10.995  1.00  0.00     0.191 A 
ATOM      7  S   UNL     1     -49.921  19.184   9.600  1.00  0.00    -0.097 S 
ATOM      8  C   UNL     1     -48.270  18.978  10.048  1.00  0.00     0.057 A 
ATOM      9  C   UNL     1     -47.107  19.413   9.387  1.00  0.00     0.030 A 
ENDROOT
BRANCH   1  10
ATOM     10  C   UNL     1     -44.611  19.560   9.277  1.00  0.00     0.025 A 
ATOM     11  C   UNL     1     -41.041  20.874   7.357  1.00  0.00    -0.070 C 
ATOM     12  C   UNL     1     -42.257  20.488   8.013  1.00  0.00     0.038 A 
ATOM     13  C   UNL     1     -42.533  19.114   8.096  1.00  0.00     0.065 A 
ATOM     14  C   UNL     1     -43.161  21.404   8.561  1.00  0.00     0.031 A 
ATOM     15  C   UNL     1     -43.696  18.643   8.718  1.00  0.00     0.127 A 
ATOM     16  C   UNL     1     -44.328  20.937   9.187  1.00  0.00     0.025 A 
ATOM     17  C   UNL     1     -40.021  21.184   6.805  1.00  0.00     0.010 C 
BRANCH  14  18
ATOM     18  C   UNL     1     -42.973  22.879   8.534  1.00  0.00     0.261 C 
ATOM     19  O   UNL     1     -42.355  23.487   7.672  1.00  0.00    -0.298 OA
ENDBRANCH  14  18
BRANCH  15  20
ATOM     20  O   UNL     1     -44.027  17.316   8.827  1.00  0.00    -0.496 OA
ATOM     21  C   UNL     1     -43.021  16.414   9.271  1.00  0.00     0.278 C 
ENDBRANCH  15  20
ENDBRANCH   1  10
BRANCH   6  22
ATOM     22  N   UNL     1     -51.749  18.199  11.131  1.00  0.00    -0.284 N 
ATOM     23  C   UNL     1     -52.433  17.089  10.712  1.00  0.00     0.322 C 
ATOM     24  O   UNL     1     -51.984  16.111  10.131  1.00  0.00    -0.248 OA
ATOM     25  N   UNL     1     -53.775  17.188  11.028  1.00  0.00    -0.315 N 
ATOM     26  H   UNL     1     -52.260  19.017  11.415  1.00  0.00     0.174 HD
ATOM     27  H   UNL     1     -53.982  17.635  11.907  1.00  0.00     0.167 HD
BRANCH  25  28
ATOM     28  C   UNL     1     -54.656  16.113  10.700  1.00  0.00     0.277 C 
BRANCH  28  29
ATOM     29  O   UNL     1     -54.784  16.113   9.299  1.00  0.00    -0.376 OA
ATOM     30  H   UNL     1     -54.639  17.045   9.045  1.00  0.00     0.212 HD
ENDBRANCH  28  29
ENDBRANCH  25  28
ENDBRANCH   6  22
TORSDOF 6
ENDMDL
MODEL 8
REMARK VINA RESULT:      -7.7      6.659     11.526
REMARK SMILES C#Cc1cc(OC)c(-c2ccc3nc(NC(=O)NCO)sc3c2)cc1C=O
REMARK SMILES IDX 9 1 10 2 11 3 12 4 13 5 14 6 21 7 22 8 23 9 8 10 2 11 3 12
REMARK SMILES IDX 4 13 25 14 5 15 24 16 1 17 26 18 27 19 6 20 7 21 15 22 16 23
REMARK SMILES IDX 17 24 18 25 19 28 20 29
REMARK H PARENT 15 26 18 27 20 30
ROOT
ATOM      1  C   UNL     1     -47.460  15.158 -15.888  1.00  0.00    -0.013 A 
ATOM      2  C   UNL     1     -46.643  14.031 -15.721  1.00  0.00     0.011 A 
ATOM      3  C   UNL     1     -47.041  12.955 -14.916  1.00  0.00     0.030 A 
ATOM      4  C   UNL     1     -48.283  12.998 -14.256  1.00  0.00     0.084 A 
ATOM      5  N   UNL     1     -48.801  12.013 -13.434  1.00  0.00    -0.220 NA
ATOM      6  C   UNL     1     -49.973  12.384 -12.995  1.00  0.00     0.191 A 
ATOM      7  S   UNL     1     -50.536  13.910 -13.506  1.00  0.00    -0.097 S 
ATOM      8  C   UNL     1     -49.092  14.123 -14.423  1.00  0.00     0.057 A 
ATOM      9  C   UNL     1     -48.703  15.206 -15.231  1.00  0.00     0.030 A 
ENDROOT
BRANCH   1  10
ATOM     10  C   UNL     1     -47.028  16.273 -16.754  1.00  0.00     0.025 A 
ATOM     11  C   UNL     1     -45.845  19.528 -19.236  1.00  0.00    -0.070 C 
ATOM     12  C   UNL     1     -46.299  18.453 -18.402  1.00  0.00     0.038 A 
ATOM     13  C   UNL     1     -45.343  17.508 -17.997  1.00  0.00     0.065 A 
ATOM     14  C   UNL     1     -47.626  18.310 -17.984  1.00  0.00     0.031 A 
ATOM     15  C   UNL     1     -45.692  16.424 -17.183  1.00  0.00     0.127 A 
ATOM     16  C   UNL     1     -47.981  17.225 -17.166  1.00  0.00     0.025 A 
ATOM     17  C   UNL     1     -45.453  20.424 -19.934  1.00  0.00     0.010 C 
BRANCH  14  18
ATOM     18  C   UNL     1     -48.721  19.247 -18.348  1.00  0.00     0.261 C 
ATOM     19  O   UNL     1     -48.556  20.366 -18.812  1.00  0.00    -0.298 OA
ENDBRANCH  14  18
BRANCH  15  20
ATOM     20  O   UNL     1     -44.809  15.464 -16.758  1.00  0.00    -0.496 OA
ATOM     21  C   UNL     1     -43.477  15.520 -17.252  1.00  0.00     0.278 C 
ENDBRANCH  15  20
ENDBRANCH   1  10
BRANCH   6  22
ATOM     22  N   UNL     1     -50.833  11.731 -12.158  1.00  0.00    -0.284 N 
ATOM     23  C   UNL     1     -50.692  11.748 -10.795  1.00  0.00     0.322 C 
ATOM     24  O   UNL     1     -49.798  12.270 -10.144  1.00  0.00    -0.248 OA
ATOM     25  N   UNL     1     -51.729  11.068 -10.184  1.00  0.00    -0.315 N 
ATOM     26  H   UNL     1     -51.496  11.104 -12.579  1.00  0.00     0.174 HD
ATOM     27  H   UNL     1     -52.631  11.167 -10.623  1.00  0.00     0.167 HD
BRANCH  25  28
ATOM     28  C   UNL     1     -51.780  10.998  -8.759  1.00  0.00     0.277 C 
BRANCH  28  29
ATOM     29  O   UNL     1     -52.102  12.291  -8.305  1.00  0.00    -0.376 OA
ATOM     30  H   UNL     1     -51.800  12.301  -7.376  1.00  0.00     0.212 HD
ENDBRANCH  28  29
ENDBRANCH  25  28
ENDBRANCH   6  22
TORSDOF 6
ENDMDL
MODEL 9
REMARK VINA RESULT:      -7.7      8.944     12.296
REMARK SMILES C#Cc1cc(OC)c(-c2ccc3nc(NC(=O)NCO)sc3c2)cc1C=O
REMARK SMILES IDX 9 1 10 2 11 3 12 4 13 5 14 6 21 7 22 8 23 9 8 10 2 11 3 12
REMARK SMILES IDX 4 13 25 14 5 15 24 16 1 17 26 18 27 19 6 20 7 21 15 22 16 23
REMARK SMILES IDX 17 24 18 25 19 28 20 29
REMARK H PARENT 15 26 18 27 20 30
ROOT
ATOM      1  C   UNL     1     -44.415  30.002 -22.263  1.00  0.00    -0.013 A 
ATOM      2  C   UNL     1     -43.931  30.864 -23.257  1.00  0.00     0.011 A 
ATOM      3  C   UNL     1     -44.744  31.282 -24.319  1.00  0.00     0.030 A 
ATOM      4  C   UNL     1     -46.074  30.831 -24.401  1.00  0.00     0.084 A 
ATOM      5  N   UNL     1     -46.984  31.160 -25.389  1.00  0.00    -0.220 NA
ATOM      6  C   UNL     1     -48.122  30.566 -25.148  1.00  0.00     0.191 A 
ATOM      7  S   UNL     1     -48.193  29.577 -23.761  1.00  0.00    -0.097 S 
ATOM      8  C   UNL     1     -46.552  29.970 -23.411  1.00  0.00     0.057 A 
ATOM      9  C   UNL     1     -45.745  29.548 -22.339  1.00  0.00     0.030 A 
ENDROOT
BRANCH   1  10
ATOM     10  C   UNL     1     -43.547  29.587 -21.143  1.00  0.00     0.025 A 
ATOM     11  C   UNL     1     -41.033  28.324 -17.944  1.00  0.00    -0.070 C 
ATOM     12  C   UNL     1     -41.887  28.692 -19.035  1.00  0.00     0.038 A 
ATOM     13  C   UNL     1     -42.141  30.061 -19.217  1.00  0.00     0.065 A 
ATOM     14  C   UNL     1     -42.465  27.765 -19.909  1.00  0.00     0.031 A 
ATOM     15  C   UNL     1     -42.963  30.516 -20.256  1.00  0.00     0.127 A 
ATOM     16  C   UNL     1     -43.288  28.216 -20.953  1.00  0.00     0.025 A 
ATOM     17  C   UNL     1     -40.317  28.028 -17.026  1.00  0.00     0.010 C 
BRANCH  14  18
ATOM     18  C   UNL     1     -42.266  26.294 -19.814  1.00  0.00     0.261 C 
ATOM     19  O   UNL     1     -42.937  25.543 -19.122  1.00  0.00    -0.298 OA
ENDBRANCH  14  18
BRANCH  15  20
ATOM     20  O   UNL     1     -43.255  31.837 -20.484  1.00  0.00    -0.496 OA
ATOM     21  C   UNL     1     -43.601  32.644 -19.366  1.00  0.00     0.278 C 
ENDBRANCH  15  20
ENDBRANCH   1  10
BRANCH   6  22
ATOM     22  N   UNL     1     -49.287  30.601 -25.861  1.00  0.00    -0.284 N 
ATOM     23  C   UNL     1     -49.697  29.565 -26.658  1.00  0.00     0.322 C 
ATOM     24  O   UNL     1     -49.099  28.525 -26.896  1.00  0.00    -0.248 OA
ATOM     25  N   UNL     1     -50.936  29.828 -27.211  1.00  0.00    -0.315 N 
ATOM     26  H   UNL     1     -49.772  31.481 -25.905  1.00  0.00     0.174 HD
ATOM     27  H   UNL     1     -51.581  30.322 -26.614  1.00  0.00     0.167 HD
BRANCH  25  28
ATOM     28  C   UNL     1     -51.552  28.852 -28.052  1.00  0.00     0.277 C 
BRANCH  28  29
ATOM     29  O   UNL     1     -50.654  28.607 -29.106  1.00  0.00    -0.376 OA
ATOM     30  H   UNL     1     -51.214  28.618 -29.906  1.00  0.00     0.212 HD
ENDBRANCH  28  29
ENDBRANCH  25  28
ENDBRANCH   6  22
TORSDOF 6
ENDMDL
