MODEL 1
REMARK VINA RESULT:      -7.1      0.000      0.000
REMARK SMILES C#CCN(C)C(=O)c1cncc(-c2cnc3[nH]cc(-c4cc(C=O)c(C#C)cc4OC)c3c2)c1
REMARK SMILES IDX 8 1 9 2 10 3 11 4 12 5 34 6 6 7 7 8 4 9 5 10 3 11 2 12 1 13
REMARK SMILES IDX 13 14 14 15 33 16 15 17 32 18 16 19 19 20 17 21 18 22 20 24
REMARK SMILES IDX 21 25 29 26 22 27 28 28 25 29 26 30 27 31 30 32 31 33 23 34
REMARK SMILES IDX 24 35
REMARK H PARENT 17 23
ROOT
ATOM      1  C   UNL     1     -43.819  34.403 -19.899  1.00  0.00     0.058 A 
ATOM      2  C   UNL     1     -44.821  35.197 -19.367  1.00  0.00     0.124 A 
ATOM      3  N   UNL     1     -44.614  36.459 -18.924  1.00  0.00    -0.263 NA
ATOM      4  C   UNL     1     -43.341  36.924 -18.989  1.00  0.00     0.119 A 
ATOM      5  C   UNL     1     -42.246  36.201 -19.475  1.00  0.00     0.002 A 
ATOM      6  C   UNL     1     -42.512  34.901 -19.930  1.00  0.00     0.025 A 
ENDROOT
BRANCH   1   7
ATOM      7  C   UNL     1     -44.146  33.037 -20.341  1.00  0.00     0.255 C 
ATOM      8  O   UNL     1     -43.520  32.119 -19.817  1.00  0.00    -0.269 OA
BRANCH   7   9
ATOM      9  N   UNL     1     -45.123  32.849 -21.315  1.00  0.00    -0.331 N 
ATOM     10  C   UNL     1     -46.398  32.172 -21.102  1.00  0.00     0.148 C 
BRANCH   9  11
ATOM     11  C   UNL     1     -44.877  33.385 -22.650  1.00  0.00     0.209 C 
ATOM     12  C   UNL     1     -44.007  32.485 -23.422  1.00  0.00    -0.085 C 
ATOM     13  C   UNL     1     -43.298  31.750 -24.055  1.00  0.00     0.006 C 
ENDBRANCH   9  11
ENDBRANCH   7   9
ENDBRANCH   1   7
BRANCH   5  14
ATOM     14  C   UNL     1     -40.894  36.773 -19.510  1.00  0.00     0.002 A 
ATOM     15  C   UNL     1     -40.490  37.771 -18.614  1.00  0.00     0.122 A 
ATOM     16  C   UNL     1     -39.942  36.339 -20.446  1.00  0.00     0.023 A 
ATOM     17  N   UNL     1     -39.270  38.359 -18.545  1.00  0.00    -0.238 NA
ATOM     18  C   UNL     1     -38.656  36.911 -20.427  1.00  0.00     0.027 A 
ATOM     19  C   UNL     1     -38.415  37.887 -19.468  1.00  0.00     0.137 A 
ATOM     20  C   UNL     1     -37.450  36.758 -21.178  1.00  0.00     0.012 A 
ATOM     21  N   UNL     1     -37.124  38.314 -19.615  1.00  0.00    -0.346 N 
ATOM     22  C   UNL     1     -36.526  37.647 -20.653  1.00  0.00     0.094 A 
ATOM     23  H   UNL     1     -36.702  39.021 -19.029  1.00  0.00     0.167 HD
BRANCH  20  24
ATOM     24  C   UNL     1     -37.155  35.883 -22.306  1.00  0.00     0.027 A 
ATOM     25  C   UNL     1     -36.720  34.575 -22.040  1.00  0.00     0.025 A 
ATOM     26  C   UNL     1     -37.282  36.320 -23.639  1.00  0.00     0.128 A 
ATOM     27  C   UNL     1     -36.405  33.695 -23.086  1.00  0.00     0.031 A 
ATOM     28  C   UNL     1     -36.965  35.435 -24.677  1.00  0.00     0.065 A 
ATOM     29  C   UNL     1     -36.528  34.126 -24.412  1.00  0.00     0.038 A 
ATOM     30  C   UNL     1     -36.227  33.296 -25.543  1.00  0.00    -0.070 C 
ATOM     31  C   UNL     1     -35.979  32.610 -26.497  1.00  0.00     0.010 C 
BRANCH  26  32
ATOM     32  O   UNL     1     -37.721  37.605 -23.831  1.00  0.00    -0.496 OA
ATOM     33  C   UNL     1     -39.056  37.793 -24.284  1.00  0.00     0.278 C 
ENDBRANCH  26  32
BRANCH  27  34
ATOM     34  C   UNL     1     -35.947  32.338 -22.689  1.00  0.00     0.261 C 
ATOM     35  O   UNL     1     -36.148  31.825 -21.598  1.00  0.00    -0.298 OA
ENDBRANCH  27  34
ENDBRANCH  20  24
ENDBRANCH   5  14
TORSDOF 7
ENDMDL
MODEL 2
REMARK VINA RESULT:      -7.0     34.764     37.109
REMARK SMILES C#CCN(C)C(=O)c1cncc(-c2cnc3[nH]cc(-c4cc(C=O)c(C#C)cc4OC)c3c2)c1
REMARK SMILES IDX 8 1 9 2 10 3 11 4 12 5 34 6 6 7 7 8 4 9 5 10 3 11 2 12 1 13
REMARK SMILES IDX 13 14 14 15 33 16 15 17 32 18 16 19 19 20 17 21 18 22 20 24
REMARK SMILES IDX 21 25 29 26 22 27 28 28 25 29 26 30 27 31 30 32 31 33 23 34
REMARK SMILES IDX 24 35
REMARK H PARENT 17 23
ROOT
ATOM      1  C   UNL     1     -50.396  18.611  10.845  1.00  0.00     0.058 A 
ATOM      2  C   UNL     1     -50.376  18.134  12.146  1.00  0.00     0.124 A 
ATOM      3  N   UNL     1     -49.235  17.864  12.821  1.00  0.00    -0.263 NA
ATOM      4  C   UNL     1     -48.072  18.049  12.147  1.00  0.00     0.119 A 
ATOM      5  C   UNL     1     -47.973  18.492  10.825  1.00  0.00     0.002 A 
ATOM      6  C   UNL     1     -49.181  18.767  10.169  1.00  0.00     0.025 A 
ENDROOT
BRANCH   1   7
ATOM      7  C   UNL     1     -51.693  18.861  10.194  1.00  0.00     0.255 C 
ATOM      8  O   UNL     1     -52.623  18.120  10.506  1.00  0.00    -0.269 OA
BRANCH   7   9
ATOM      9  N   UNL     1     -51.806  19.896   9.270  1.00  0.00    -0.331 N 
ATOM     10  C   UNL     1     -51.891  19.723   7.824  1.00  0.00     0.148 C 
BRANCH   9  11
ATOM     11  C   UNL     1     -51.872  21.264   9.775  1.00  0.00     0.209 C 
ATOM     12  C   UNL     1     -50.661  22.015   9.407  1.00  0.00    -0.085 C 
ATOM     13  C   UNL     1     -49.674  22.630   9.105  1.00  0.00     0.006 C 
ENDBRANCH   9  11
ENDBRANCH   7   9
ENDBRANCH   1   7
BRANCH   5  14
ATOM     14  C   UNL     1     -46.675  18.665  10.161  1.00  0.00     0.002 A 
ATOM     15  C   UNL     1     -46.372  19.813   9.418  1.00  0.00     0.122 A 
ATOM     16  C   UNL     1     -45.674  17.684  10.246  1.00  0.00     0.023 A 
ATOM     17  N   UNL     1     -45.208  20.086   8.777  1.00  0.00    -0.238 NA
ATOM     18  C   UNL     1     -44.442  17.907   9.602  1.00  0.00     0.027 A 
ATOM     19  C   UNL     1     -44.301  19.103   8.909  1.00  0.00     0.137 A 
ATOM     20  C   UNL     1     -43.216  17.190   9.449  1.00  0.00     0.012 A 
ATOM     21  N   UNL     1     -43.050  19.128   8.359  1.00  0.00    -0.346 N 
ATOM     22  C   UNL     1     -42.380  17.971   8.668  1.00  0.00     0.094 A 
ATOM     23  H   UNL     1     -42.699  19.899   7.808  1.00  0.00     0.167 HD
BRANCH  20  24
ATOM     24  C   UNL     1     -42.829  15.879   9.955  1.00  0.00     0.027 A 
ATOM     25  C   UNL     1     -41.748  15.801  10.849  1.00  0.00     0.025 A 
ATOM     26  C   UNL     1     -43.498  14.703   9.564  1.00  0.00     0.128 A 
ATOM     27  C   UNL     1     -41.321  14.565  11.354  1.00  0.00     0.031 A 
ATOM     28  C   UNL     1     -43.065  13.473  10.072  1.00  0.00     0.065 A 
ATOM     29  C   UNL     1     -41.982  13.393  10.965  1.00  0.00     0.038 A 
ATOM     30  C   UNL     1     -41.614  12.087  11.431  1.00  0.00    -0.070 C 
ATOM     31  C   UNL     1     -41.314  10.990  11.814  1.00  0.00     0.010 C 
BRANCH  26  32
ATOM     32  O   UNL     1     -44.551  14.849   8.697  1.00  0.00    -0.496 OA
ATOM     33  C   UNL     1     -45.800  14.275   9.063  1.00  0.00     0.278 C 
ENDBRANCH  26  32
BRANCH  27  34
ATOM     34  C   UNL     1     -40.163  14.599  12.285  1.00  0.00     0.261 C 
ATOM     35  O   UNL     1     -39.021  14.895  11.967  1.00  0.00    -0.298 OA
ENDBRANCH  27  34
ENDBRANCH  20  24
ENDBRANCH   5  14
TORSDOF 7
ENDMDL
MODEL 3
REMARK VINA RESULT:      -7.0      3.766      6.780
REMARK SMILES C#CCN(C)C(=O)c1cncc(-c2cnc3[nH]cc(-c4cc(C=O)c(C#C)cc4OC)c3c2)c1
REMARK SMILES IDX 8 1 9 2 10 3 11 4 12 5 34 6 6 7 7 8 4 9 5 10 3 11 2 12 1 13
REMARK SMILES IDX 13 14 14 15 33 16 15 17 32 18 16 19 19 20 17 21 18 22 20 24
REMARK SMILES IDX 21 25 29 26 22 27 28 28 25 29 26 30 27 31 30 32 31 33 23 34
REMARK SMILES IDX 24 35
REMARK H PARENT 17 23
ROOT
ATOM      1  C   UNL     1     -42.966  28.638 -20.935  1.00  0.00     0.058 A 
ATOM      2  C   UNL     1     -44.191  28.065 -20.637  1.00  0.00     0.124 A 
ATOM      3  N   UNL     1     -45.371  28.563 -21.075  1.00  0.00    -0.263 NA
ATOM      4  C   UNL     1     -45.314  29.701 -21.812  1.00  0.00     0.119 A 
ATOM      5  C   UNL     1     -44.140  30.383 -22.144  1.00  0.00     0.002 A 
ATOM      6  C   UNL     1     -42.942  29.825 -21.675  1.00  0.00     0.025 A 
ENDROOT
BRANCH   1   7
ATOM      7  C   UNL     1     -41.740  28.025 -20.398  1.00  0.00     0.255 C 
ATOM      8  O   UNL     1     -40.829  27.813 -21.195  1.00  0.00    -0.269 OA
BRANCH   7   9
ATOM      9  N   UNL     1     -41.668  27.713 -19.042  1.00  0.00    -0.331 N 
ATOM     10  C   UNL     1     -41.695  26.363 -18.492  1.00  0.00     0.148 C 
BRANCH   9  11
ATOM     11  C   UNL     1     -41.530  28.810 -18.090  1.00  0.00     0.209 C 
ATOM     12  C   UNL     1     -40.295  28.667 -17.304  1.00  0.00    -0.085 C 
ATOM     13  C   UNL     1     -39.285  28.553 -16.662  1.00  0.00     0.006 C 
ENDBRANCH   9  11
ENDBRANCH   7   9
ENDBRANCH   1   7
BRANCH   5  14
ATOM     14  C   UNL     1     -44.159  31.614 -22.945  1.00  0.00     0.002 A 
ATOM     15  C   UNL     1     -45.101  31.821 -23.960  1.00  0.00     0.122 A 
ATOM     16  C   UNL     1     -43.230  32.644 -22.723  1.00  0.00     0.023 A 
ATOM     17  N   UNL     1     -45.222  32.917 -24.750  1.00  0.00    -0.238 NA
ATOM     18  C   UNL     1     -43.303  33.809 -23.510  1.00  0.00     0.027 A 
ATOM     19  C   UNL     1     -44.303  33.858 -24.473  1.00  0.00     0.137 A 
ATOM     20  C   UNL     1     -42.577  35.037 -23.601  1.00  0.00     0.012 A 
ATOM     21  N   UNL     1     -44.205  35.056 -25.125  1.00  0.00    -0.346 N 
ATOM     22  C   UNL     1     -43.157  35.780 -24.616  1.00  0.00     0.094 A 
ATOM     23  H   UNL     1     -44.826  35.337 -25.870  1.00  0.00     0.167 HD
BRANCH  20  24
ATOM     24  C   UNL     1     -41.425  35.500 -22.839  1.00  0.00     0.027 A 
ATOM     25  C   UNL     1     -40.169  35.509 -23.468  1.00  0.00     0.025 A 
ATOM     26  C   UNL     1     -41.538  35.921 -21.500  1.00  0.00     0.128 A 
ATOM     27  C   UNL     1     -39.022  35.927 -22.777  1.00  0.00     0.031 A 
ATOM     28  C   UNL     1     -40.388  36.337 -20.817  1.00  0.00     0.065 A 
ATOM     29  C   UNL     1     -39.130  36.344 -21.445  1.00  0.00     0.038 A 
ATOM     30  C   UNL     1     -38.012  36.787 -20.663  1.00  0.00    -0.070 C 
ATOM     31  C   UNL     1     -37.084  37.160 -19.999  1.00  0.00     0.010 C 
BRANCH  26  32
ATOM     32  O   UNL     1     -42.793  35.898 -20.948  1.00  0.00    -0.496 OA
ATOM     33  C   UNL     1     -42.998  35.096 -19.791  1.00  0.00     0.278 C 
ENDBRANCH  26  32
BRANCH  27  34
ATOM     34  C   UNL     1     -37.745  35.888 -23.537  1.00  0.00     0.261 C 
ATOM     35  O   UNL     1     -37.189  34.867 -23.914  1.00  0.00    -0.298 OA
ENDBRANCH  27  34
ENDBRANCH  20  24
ENDBRANCH   5  14
TORSDOF 7
ENDMDL
MODEL 4
REMARK VINA RESULT:      -6.9     36.050     38.369
REMARK SMILES C#CCN(C)C(=O)c1cncc(-c2cnc3[nH]cc(-c4cc(C=O)c(C#C)cc4OC)c3c2)c1
REMARK SMILES IDX 8 1 9 2 10 3 11 4 12 5 34 6 6 7 7 8 4 9 5 10 3 11 2 12 1 13
REMARK SMILES IDX 13 14 14 15 33 16 15 17 32 18 16 19 19 20 17 21 18 22 20 24
REMARK SMILES IDX 21 25 29 26 22 27 28 28 25 29 26 30 27 31 30 32 31 33 23 34
REMARK SMILES IDX 24 35
REMARK H PARENT 17 23
ROOT
ATOM      1  C   UNL     1     -48.976  16.613  13.001  1.00  0.00     0.058 A 
ATOM      2  C   UNL     1     -50.008  17.537  13.028  1.00  0.00     0.124 A 
ATOM      3  N   UNL     1     -50.006  18.675  12.296  1.00  0.00    -0.263 NA
ATOM      4  C   UNL     1     -48.906  18.906  11.536  1.00  0.00     0.119 A 
ATOM      5  C   UNL     1     -47.793  18.063  11.457  1.00  0.00     0.002 A 
ATOM      6  C   UNL     1     -47.845  16.891  12.227  1.00  0.00     0.025 A 
ENDROOT
BRANCH   1   7
ATOM      7  C   UNL     1     -49.069  15.411  13.847  1.00  0.00     0.255 C 
ATOM      8  O   UNL     1     -50.178  14.891  13.953  1.00  0.00    -0.269 OA
BRANCH   7   9
ATOM      9  N   UNL     1     -47.927  14.929  14.481  1.00  0.00    -0.331 N 
ATOM     10  C   UNL     1     -47.346  15.486  15.697  1.00  0.00     0.148 C 
BRANCH   9  11
ATOM     11  C   UNL     1     -47.262  13.763  13.908  1.00  0.00     0.209 C 
ATOM     12  C   UNL     1     -45.947  14.129  13.360  1.00  0.00    -0.085 C 
ATOM     13  C   UNL     1     -44.871  14.425  12.913  1.00  0.00     0.006 C 
ENDBRANCH   9  11
ENDBRANCH   7   9
ENDBRANCH   1   7
BRANCH   5  14
ATOM     14  C   UNL     1     -46.636  18.383  10.611  1.00  0.00     0.002 A 
ATOM     15  C   UNL     1     -46.574  19.564   9.861  1.00  0.00     0.122 A 
ATOM     16  C   UNL     1     -45.535  17.517  10.522  1.00  0.00     0.023 A 
ATOM     17  N   UNL     1     -45.557  19.969   9.060  1.00  0.00    -0.238 NA
ATOM     18  C   UNL     1     -44.446  17.880   9.707  1.00  0.00     0.027 A 
ATOM     19  C   UNL     1     -44.540  19.090   9.031  1.00  0.00     0.137 A 
ATOM     20  C   UNL     1     -43.186  17.304   9.355  1.00  0.00     0.012 A 
ATOM     21  N   UNL     1     -43.396  19.258   8.301  1.00  0.00    -0.346 N 
ATOM     22  C   UNL     1     -42.567  18.179   8.478  1.00  0.00     0.094 A 
ATOM     23  H   UNL     1     -43.217  20.067   7.724  1.00  0.00     0.167 HD
BRANCH  20  24
ATOM     24  C   UNL     1     -42.590  16.039   9.765  1.00  0.00     0.027 A 
ATOM     25  C   UNL     1     -41.412  16.074  10.530  1.00  0.00     0.025 A 
ATOM     26  C   UNL     1     -43.152  14.799   9.405  1.00  0.00     0.128 A 
ATOM     27  C   UNL     1     -40.784  14.888  10.937  1.00  0.00     0.031 A 
ATOM     28  C   UNL     1     -42.518  13.620   9.814  1.00  0.00     0.065 A 
ATOM     29  C   UNL     1     -41.339  13.653  10.579  1.00  0.00     0.038 A 
ATOM     30  C   UNL     1     -40.765  12.392  10.951  1.00  0.00    -0.070 C 
ATOM     31  C   UNL     1     -40.294  11.331  11.256  1.00  0.00     0.010 C 
BRANCH  26  32
ATOM     32  O   UNL     1     -44.307  14.834   8.665  1.00  0.00    -0.496 OA
ATOM     33  C   UNL     1     -45.449  14.163   9.181  1.00  0.00     0.278 C 
ENDBRANCH  26  32
BRANCH  27  34
ATOM     34  C   UNL     1     -39.540  15.043  11.736  1.00  0.00     0.261 C 
ATOM     35  O   UNL     1     -39.461  14.872  12.944  1.00  0.00    -0.298 OA
ENDBRANCH  27  34
ENDBRANCH  20  24
ENDBRANCH   5  14
TORSDOF 7
ENDMDL
MODEL 5
REMARK VINA RESULT:      -6.9     38.012     40.393
REMARK SMILES C#CCN(C)C(=O)c1cncc(-c2cnc3[nH]cc(-c4cc(C=O)c(C#C)cc4OC)c3c2)c1
REMARK SMILES IDX 8 1 9 2 10 3 11 4 12 5 34 6 6 7 7 8 4 9 5 10 3 11 2 12 1 13
REMARK SMILES IDX 13 14 14 15 33 16 15 17 32 18 16 19 19 20 17 21 18 22 20 24
REMARK SMILES IDX 21 25 29 26 22 27 28 28 25 29 26 30 27 31 30 32 31 33 23 34
REMARK SMILES IDX 24 35
REMARK H PARENT 17 23
ROOT
ATOM      1  C   UNL     1     -45.044  17.034  10.419  1.00  0.00     0.058 A 
ATOM      2  C   UNL     1     -45.390  16.214   9.357  1.00  0.00     0.124 A 
ATOM      3  N   UNL     1     -44.678  15.121   8.999  1.00  0.00    -0.263 NA
ATOM      4  C   UNL     1     -43.556  14.865   9.718  1.00  0.00     0.119 A 
ATOM      5  C   UNL     1     -43.092  15.640  10.785  1.00  0.00     0.002 A 
ATOM      6  C   UNL     1     -43.868  16.758  11.124  1.00  0.00     0.025 A 
ENDROOT
BRANCH   1   7
ATOM      7  C   UNL     1     -45.880  18.208  10.718  1.00  0.00     0.255 C 
ATOM      8  O   UNL     1     -46.646  18.116  11.675  1.00  0.00    -0.269 OA
BRANCH   7   9
ATOM      9  N   UNL     1     -45.774  19.345   9.921  1.00  0.00    -0.331 N 
ATOM     10  C   UNL     1     -46.723  19.731   8.882  1.00  0.00     0.148 C 
BRANCH   9  11
ATOM     11  C   UNL     1     -44.644  20.241  10.146  1.00  0.00     0.209 C 
ATOM     12  C   UNL     1     -43.558  19.962   9.195  1.00  0.00    -0.085 C 
ATOM     13  C   UNL     1     -42.670  19.736   8.417  1.00  0.00     0.006 C 
ENDBRANCH   9  11
ENDBRANCH   7   9
ENDBRANCH   1   7
BRANCH   5  14
ATOM     14  C   UNL     1     -41.864  15.300  11.514  1.00  0.00     0.002 A 
ATOM     15  C   UNL     1     -40.724  14.821  10.857  1.00  0.00     0.122 A 
ATOM     16  C   UNL     1     -41.777  15.445  12.908  1.00  0.00     0.023 A 
ATOM     17  N   UNL     1     -39.536  14.489  11.422  1.00  0.00    -0.238 NA
ATOM     18  C   UNL     1     -40.571  15.118  13.554  1.00  0.00     0.027 A 
ATOM     19  C   UNL     1     -39.531  14.660  12.755  1.00  0.00     0.137 A 
ATOM     20  C   UNL     1     -40.090  15.121  14.900  1.00  0.00     0.012 A 
ATOM     21  N   UNL     1     -38.460  14.397  13.562  1.00  0.00    -0.346 N 
ATOM     22  C   UNL     1     -38.784  14.662  14.869  1.00  0.00     0.094 A 
ATOM     23  H   UNL     1     -37.573  14.057  13.218  1.00  0.00     0.167 HD
BRANCH  20  24
ATOM     24  C   UNL     1     -40.769  15.494  16.135  1.00  0.00     0.027 A 
ATOM     25  C   UNL     1     -40.495  16.753  16.694  1.00  0.00     0.025 A 
ATOM     26  C   UNL     1     -41.672  14.626  16.778  1.00  0.00     0.128 A 
ATOM     27  C   UNL     1     -41.106  17.157  17.890  1.00  0.00     0.031 A 
ATOM     28  C   UNL     1     -42.277  15.036  17.973  1.00  0.00     0.065 A 
ATOM     29  C   UNL     1     -42.002  16.295  18.534  1.00  0.00     0.038 A 
ATOM     30  C   UNL     1     -42.672  16.625  19.759  1.00  0.00    -0.070 C 
ATOM     31  C   UNL     1     -43.237  16.890  20.784  1.00  0.00     0.010 C 
BRANCH  26  32
ATOM     32  O   UNL     1     -41.904  13.415  16.176  1.00  0.00    -0.496 OA
ATOM     33  C   UNL     1     -43.240  13.100  15.805  1.00  0.00     0.278 C 
ENDBRANCH  26  32
BRANCH  27  34
ATOM     34  C   UNL     1     -40.737  18.505  18.394  1.00  0.00     0.261 C 
ATOM     35  O   UNL     1     -41.483  19.473  18.408  1.00  0.00    -0.298 OA
ENDBRANCH  27  34
ENDBRANCH  20  24
ENDBRANCH   5  14
TORSDOF 7
ENDMDL
MODEL 6
REMARK VINA RESULT:      -6.7     36.704     39.202
REMARK SMILES C#CCN(C)C(=O)c1cncc(-c2cnc3[nH]cc(-c4cc(C=O)c(C#C)cc4OC)c3c2)c1
REMARK SMILES IDX 8 1 9 2 10 3 11 4 12 5 34 6 6 7 7 8 4 9 5 10 3 11 2 12 1 13
REMARK SMILES IDX 13 14 14 15 33 16 15 17 32 18 16 19 19 20 17 21 18 22 20 24
REMARK SMILES IDX 21 25 29 26 22 27 28 28 25 29 26 30 27 31 30 32 31 33 23 34
REMARK SMILES IDX 24 35
REMARK H PARENT 17 23
ROOT
ATOM      1  C   UNL     1     -46.801  18.483   9.510  1.00  0.00     0.058 A 
ATOM      2  C   UNL     1     -46.344  19.697   9.022  1.00  0.00     0.124 A 
ATOM      3  N   UNL     1     -45.032  19.986   8.858  1.00  0.00    -0.263 NA
ATOM      4  C   UNL     1     -44.148  19.028   9.234  1.00  0.00     0.119 A 
ATOM      5  C   UNL     1     -44.492  17.783   9.768  1.00  0.00     0.002 A 
ATOM      6  C   UNL     1     -45.864  17.526   9.911  1.00  0.00     0.025 A 
ENDROOT
BRANCH   1   7
ATOM      7  C   UNL     1     -48.250  18.273   9.662  1.00  0.00     0.255 C 
ATOM      8  O   UNL     1     -48.683  17.159   9.378  1.00  0.00    -0.269 OA
BRANCH   7   9
ATOM      9  N   UNL     1     -49.051  19.323  10.105  1.00  0.00    -0.331 N 
ATOM     10  C   UNL     1     -49.073  19.841  11.469  1.00  0.00     0.148 C 
BRANCH   9  11
ATOM     11  C   UNL     1     -49.922  19.980   9.136  1.00  0.00     0.209 C 
ATOM     12  C   UNL     1     -49.620  21.417   9.053  1.00  0.00    -0.085 C 
ATOM     13  C   UNL     1     -49.373  22.591   8.982  1.00  0.00     0.006 C 
ENDBRANCH   9  11
ENDBRANCH   7   9
ENDBRANCH   1   7
BRANCH   5  14
ATOM     14  C   UNL     1     -43.475  16.797  10.155  1.00  0.00     0.002 A 
ATOM     15  C   UNL     1     -42.705  16.118   9.202  1.00  0.00     0.122 A 
ATOM     16  C   UNL     1     -43.227  16.494  11.503  1.00  0.00     0.023 A 
ATOM     17  N   UNL     1     -41.733  15.202   9.442  1.00  0.00    -0.238 NA
ATOM     18  C   UNL     1     -42.230  15.551  11.818  1.00  0.00     0.027 A 
ATOM     19  C   UNL     1     -41.552  14.971  10.754  1.00  0.00     0.137 A 
ATOM     20  C   UNL     1     -41.692  14.983  13.014  1.00  0.00     0.012 A 
ATOM     21  N   UNL     1     -40.638  14.092  11.263  1.00  0.00    -0.346 N 
ATOM     22  C   UNL     1     -40.715  14.079  12.633  1.00  0.00     0.094 A 
ATOM     23  H   UNL     1     -40.012  13.545  10.689  1.00  0.00     0.167 HD
BRANCH  20  24
ATOM     24  C   UNL     1     -42.048  15.223  14.406  1.00  0.00     0.027 A 
ATOM     25  C   UNL     1     -41.246  16.097  15.159  1.00  0.00     0.025 A 
ATOM     26  C   UNL     1     -43.156  14.598  15.010  1.00  0.00     0.128 A 
ATOM     27  C   UNL     1     -41.531  16.351  16.509  1.00  0.00     0.031 A 
ATOM     28  C   UNL     1     -43.433  14.857  16.358  1.00  0.00     0.065 A 
ATOM     29  C   UNL     1     -42.630  15.729  17.113  1.00  0.00     0.038 A 
ATOM     30  C   UNL     1     -42.995  15.931  18.485  1.00  0.00    -0.070 C 
ATOM     31  C   UNL     1     -43.310  16.092  19.633  1.00  0.00     0.010 C 
BRANCH  26  32
ATOM     32  O   UNL     1     -43.904  13.765  14.218  1.00  0.00    -0.496 OA
ATOM     33  C   UNL     1     -45.255  14.126  13.959  1.00  0.00     0.278 C 
ENDBRANCH  26  32
BRANCH  27  34
ATOM     34  C   UNL     1     -40.611  17.285  17.210  1.00  0.00     0.261 C 
ATOM     35  O   UNL     1     -39.407  17.357  17.014  1.00  0.00    -0.298 OA
ENDBRANCH  27  34
ENDBRANCH  20  24
ENDBRANCH   5  14
TORSDOF 7
ENDMDL
MODEL 7
REMARK VINA RESULT:      -6.5      4.160      7.527
REMARK SMILES C#CCN(C)C(=O)c1cncc(-c2cnc3[nH]cc(-c4cc(C=O)c(C#C)cc4OC)c3c2)c1
REMARK SMILES IDX 8 1 9 2 10 3 11 4 12 5 34 6 6 7 7 8 4 9 5 10 3 11 2 12 1 13
REMARK SMILES IDX 13 14 14 15 33 16 15 17 32 18 16 19 19 20 17 21 18 22 20 24
REMARK SMILES IDX 21 25 29 26 22 27 28 28 25 29 26 30 27 31 30 32 31 33 23 34
REMARK SMILES IDX 24 35
REMARK H PARENT 17 23
ROOT
ATOM      1  C   UNL     1     -42.844  28.573 -20.386  1.00  0.00     0.058 A 
ATOM      2  C   UNL     1     -44.052  27.912 -20.237  1.00  0.00     0.124 A 
ATOM      3  N   UNL     1     -45.184  28.275 -20.885  1.00  0.00    -0.263 NA
ATOM      4  C   UNL     1     -45.101  29.368 -21.685  1.00  0.00     0.119 A 
ATOM      5  C   UNL     1     -43.947  30.131 -21.884  1.00  0.00     0.002 A 
ATOM      6  C   UNL     1     -42.798  29.711 -21.198  1.00  0.00     0.025 A 
ENDROOT
BRANCH   1   7
ATOM      7  C   UNL     1     -41.674  28.106 -19.625  1.00  0.00     0.255 C 
ATOM      8  O   UNL     1     -40.746  28.900 -19.488  1.00  0.00    -0.269 OA
BRANCH   7   9
ATOM      9  N   UNL     1     -41.665  26.812 -19.109  1.00  0.00    -0.331 N 
ATOM     10  C   UNL     1     -42.071  25.617 -19.840  1.00  0.00     0.148 C 
BRANCH   9  11
ATOM     11  C   UNL     1     -41.193  26.619 -17.742  1.00  0.00     0.209 C 
ATOM     12  C   UNL     1     -39.841  26.039 -17.734  1.00  0.00    -0.085 C 
ATOM     13  C   UNL     1     -38.736  25.567 -17.724  1.00  0.00     0.006 C 
ENDBRANCH   9  11
ENDBRANCH   7   9
ENDBRANCH   1   7
BRANCH   5  14
ATOM     14  C   UNL     1     -43.936  31.305 -22.766  1.00  0.00     0.002 A 
ATOM     15  C   UNL     1     -44.528  31.281 -24.035  1.00  0.00     0.122 A 
ATOM     16  C   UNL     1     -43.333  32.510 -22.371  1.00  0.00     0.023 A 
ATOM     17  N   UNL     1     -44.591  32.304 -24.924  1.00  0.00    -0.238 NA
ATOM     18  C   UNL     1     -43.365  33.609 -23.249  1.00  0.00     0.027 A 
ATOM     19  C   UNL     1     -43.998  33.421 -24.472  1.00  0.00     0.137 A 
ATOM     20  C   UNL     1     -42.887  34.956 -23.231  1.00  0.00     0.012 A 
ATOM     21  N   UNL     1     -43.919  34.592 -25.174  1.00  0.00    -0.346 N 
ATOM     22  C   UNL     1     -43.240  35.532 -24.440  1.00  0.00     0.094 A 
ATOM     23  H   UNL     1     -44.312  34.715 -26.096  1.00  0.00     0.167 HD
BRANCH  20  24
ATOM     24  C   UNL     1     -42.143  35.670 -22.202  1.00  0.00     0.027 A 
ATOM     25  C   UNL     1     -42.860  36.259 -21.147  1.00  0.00     0.025 A 
ATOM     26  C   UNL     1     -40.740  35.793 -22.246  1.00  0.00     0.128 A 
ATOM     27  C   UNL     1     -42.198  36.974 -20.139  1.00  0.00     0.031 A 
ATOM     28  C   UNL     1     -40.087  36.509 -21.236  1.00  0.00     0.065 A 
ATOM     29  C   UNL     1     -40.804  37.100 -20.181  1.00  0.00     0.038 A 
ATOM     30  C   UNL     1     -40.045  37.812 -19.193  1.00  0.00    -0.070 C 
ATOM     31  C   UNL     1     -39.400  38.406 -18.373  1.00  0.00     0.010 C 
BRANCH  26  32
ATOM     32  O   UNL     1     -40.099  35.187 -23.296  1.00  0.00    -0.496 OA
ATOM     33  C   UNL     1     -38.711  35.445 -23.468  1.00  0.00     0.278 C 
ENDBRANCH  26  32
BRANCH  27  34
ATOM     34  C   UNL     1     -43.056  37.562 -19.077  1.00  0.00     0.261 C 
ATOM     35  O   UNL     1     -44.279  37.565 -19.090  1.00  0.00    -0.298 OA
ENDBRANCH  27  34
ENDBRANCH  20  24
ENDBRANCH   5  14
TORSDOF 7
ENDMDL
MODEL 8
REMARK VINA RESULT:      -6.4      3.462      4.948
REMARK SMILES C#CCN(C)C(=O)c1cncc(-c2cnc3[nH]cc(-c4cc(C=O)c(C#C)cc4OC)c3c2)c1
REMARK SMILES IDX 8 1 9 2 10 3 11 4 12 5 34 6 6 7 7 8 4 9 5 10 3 11 2 12 1 13
REMARK SMILES IDX 13 14 14 15 33 16 15 17 32 18 16 19 19 20 17 21 18 22 20 24
REMARK SMILES IDX 21 25 29 26 22 27 28 28 25 29 26 30 27 31 30 32 31 33 23 34
REMARK SMILES IDX 24 35
REMARK H PARENT 17 23
ROOT
ATOM      1  C   UNL     1     -43.101  30.410 -20.820  1.00  0.00     0.058 A 
ATOM      2  C   UNL     1     -44.307  29.973 -21.344  1.00  0.00     0.124 A 
ATOM      3  N   UNL     1     -45.005  30.661 -22.276  1.00  0.00    -0.263 NA
ATOM      4  C   UNL     1     -44.485  31.851 -22.669  1.00  0.00     0.119 A 
ATOM      5  C   UNL     1     -43.296  32.406 -22.185  1.00  0.00     0.002 A 
ATOM      6  C   UNL     1     -42.603  31.653 -21.227  1.00  0.00     0.025 A 
ENDROOT
BRANCH   1   7
ATOM      7  C   UNL     1     -42.426  29.592 -19.799  1.00  0.00     0.255 C 
ATOM      8  O   UNL     1     -42.357  30.063 -18.666  1.00  0.00    -0.269 OA
BRANCH   7   9
ATOM      9  N   UNL     1     -41.901  28.352 -20.152  1.00  0.00    -0.331 N 
ATOM     10  C   UNL     1     -41.560  27.943 -21.510  1.00  0.00     0.148 C 
BRANCH   9  11
ATOM     11  C   UNL     1     -41.645  27.385 -19.089  1.00  0.00     0.209 C 
ATOM     12  C   UNL     1     -42.203  26.068 -19.436  1.00  0.00    -0.085 C 
ATOM     13  C   UNL     1     -42.655  24.992 -19.719  1.00  0.00     0.006 C 
ENDBRANCH   9  11
ENDBRANCH   7   9
ENDBRANCH   1   7
BRANCH   5  14
ATOM     14  C   UNL     1     -42.798  33.704 -22.658  1.00  0.00     0.002 A 
ATOM     15  C   UNL     1     -43.634  34.628 -23.298  1.00  0.00     0.122 A 
ATOM     16  C   UNL     1     -41.456  34.078 -22.485  1.00  0.00     0.023 A 
ATOM     17  N   UNL     1     -43.289  35.855 -23.761  1.00  0.00    -0.238 NA
ATOM     18  C   UNL     1     -41.034  35.340 -22.944  1.00  0.00     0.027 A 
ATOM     19  C   UNL     1     -41.992  36.141 -23.554  1.00  0.00     0.137 A 
ATOM     20  C   UNL     1     -39.807  36.072 -22.964  1.00  0.00     0.012 A 
ATOM     21  N   UNL     1     -41.390  37.310 -23.928  1.00  0.00    -0.346 N 
ATOM     22  C   UNL     1     -40.062  37.282 -23.586  1.00  0.00     0.094 A 
ATOM     23  H   UNL     1     -41.878  38.065 -24.388  1.00  0.00     0.167 HD
BRANCH  20  24
ATOM     24  C   UNL     1     -38.487  35.696 -22.472  1.00  0.00     0.027 A 
ATOM     25  C   UNL     1     -37.841  34.599 -23.066  1.00  0.00     0.025 A 
ATOM     26  C   UNL     1     -37.859  36.391 -21.421  1.00  0.00     0.128 A 
ATOM     27  C   UNL     1     -36.578  34.182 -22.622  1.00  0.00     0.031 A 
ATOM     28  C   UNL     1     -36.598  35.967 -20.982  1.00  0.00     0.065 A 
ATOM     29  C   UNL     1     -35.952  34.868 -21.574  1.00  0.00     0.038 A 
ATOM     30  C   UNL     1     -34.662  34.512 -21.057  1.00  0.00    -0.070 C 
ATOM     31  C   UNL     1     -33.584  34.222 -20.615  1.00  0.00     0.010 C 
BRANCH  26  32
ATOM     32  O   UNL     1     -38.538  37.459 -20.891  1.00  0.00    -0.496 OA
ATOM     33  C   UNL     1     -38.953  37.377 -19.533  1.00  0.00     0.278 C 
ENDBRANCH  26  32
BRANCH  27  34
ATOM     34  C   UNL     1     -35.992  33.005 -23.316  1.00  0.00     0.261 C 
ATOM     35  O   UNL     1     -36.081  32.788 -24.515  1.00  0.00    -0.298 OA
ENDBRANCH  27  34
ENDBRANCH  20  24
ENDBRANCH   5  14
TORSDOF 7
ENDMDL
MODEL 9
REMARK VINA RESULT:      -6.4     37.460     39.972
REMARK SMILES C#CCN(C)C(=O)c1cncc(-c2cnc3[nH]cc(-c4cc(C=O)c(C#C)cc4OC)c3c2)c1
REMARK SMILES IDX 8 1 9 2 10 3 11 4 12 5 34 6 6 7 7 8 4 9 5 10 3 11 2 12 1 13
REMARK SMILES IDX 13 14 14 15 33 16 15 17 32 18 16 19 19 20 17 21 18 22 20 24
REMARK SMILES IDX 21 25 29 26 22 27 28 28 25 29 26 30 27 31 30 32 31 33 23 34
REMARK SMILES IDX 24 35
REMARK H PARENT 17 23
ROOT
ATOM      1  C   UNL     1     -41.872  15.277  16.427  1.00  0.00     0.058 A 
ATOM      2  C   UNL     1     -42.655  14.825  17.476  1.00  0.00     0.124 A 
ATOM      3  N   UNL     1     -43.788  14.106  17.304  1.00  0.00    -0.263 NA
ATOM      4  C   UNL     1     -44.164  13.864  16.022  1.00  0.00     0.119 A 
ATOM      5  C   UNL     1     -43.472  14.298  14.888  1.00  0.00     0.002 A 
ATOM      6  C   UNL     1     -42.299  15.032  15.117  1.00  0.00     0.025 A 
ENDROOT
BRANCH   1   7
ATOM      7  C   UNL     1     -40.663  16.063  16.722  1.00  0.00     0.255 C 
ATOM      8  O   UNL     1     -39.725  15.956  15.936  1.00  0.00    -0.269 OA
BRANCH   7   9
ATOM      9  N   UNL     1     -40.632  16.871  17.856  1.00  0.00    -0.331 N 
ATOM     10  C   UNL     1     -41.336  18.141  17.998  1.00  0.00     0.148 C 
BRANCH   9  11
ATOM     11  C   UNL     1     -39.860  16.413  19.006  1.00  0.00     0.209 C 
ATOM     12  C   UNL     1     -38.492  16.950  18.964  1.00  0.00    -0.085 C 
ATOM     13  C   UNL     1     -37.373  17.389  18.932  1.00  0.00     0.006 C 
ENDBRANCH   9  11
ENDBRANCH   7   9
ENDBRANCH   1   7
BRANCH   5  14
ATOM     14  C   UNL     1     -43.945  13.998  13.530  1.00  0.00     0.002 A 
ATOM     15  C   UNL     1     -44.436  12.734  13.181  1.00  0.00     0.122 A 
ATOM     16  C   UNL     1     -43.929  14.973  12.519  1.00  0.00     0.023 A 
ATOM     17  N   UNL     1     -44.908  12.349  11.969  1.00  0.00    -0.238 NA
ATOM     18  C   UNL     1     -44.407  14.636  11.239  1.00  0.00     0.027 A 
ATOM     19  C   UNL     1     -44.865  13.336  11.059  1.00  0.00     0.137 A 
ATOM     20  C   UNL     1     -44.554  15.306   9.985  1.00  0.00     0.012 A 
ATOM     21  N   UNL     1     -45.279  13.209   9.762  1.00  0.00    -0.346 N 
ATOM     22  C   UNL     1     -45.089  14.392   9.093  1.00  0.00     0.094 A 
ATOM     23  H   UNL     1     -45.663  12.356   9.381  1.00  0.00     0.167 HD
BRANCH  20  24
ATOM     24  C   UNL     1     -44.217  16.674   9.611  1.00  0.00     0.027 A 
ATOM     25  C   UNL     1     -45.220  17.653   9.686  1.00  0.00     0.025 A 
ATOM     26  C   UNL     1     -42.927  17.028   9.169  1.00  0.00     0.128 A 
ATOM     27  C   UNL     1     -44.957  18.982   9.321  1.00  0.00     0.031 A 
ATOM     28  C   UNL     1     -42.673  18.356   8.806  1.00  0.00     0.065 A 
ATOM     29  C   UNL     1     -43.677  19.337   8.879  1.00  0.00     0.038 A 
ATOM     30  C   UNL     1     -43.319  20.669   8.486  1.00  0.00    -0.070 C 
ATOM     31  C   UNL     1     -43.008  21.780   8.154  1.00  0.00     0.010 C 
BRANCH  26  32
ATOM     32  O   UNL     1     -41.990  16.027   9.128  1.00  0.00    -0.496 OA
ATOM     33  C   UNL     1     -41.105  15.896  10.234  1.00  0.00     0.278 C 
ENDBRANCH  26  32
BRANCH  27  34
ATOM     34  C   UNL     1     -46.095  19.932   9.432  1.00  0.00     0.261 C 
ATOM     35  O   UNL     1     -47.012  20.019   8.628  1.00  0.00    -0.298 OA
ENDBRANCH  27  34
ENDBRANCH  20  24
ENDBRANCH   5  14
TORSDOF 7
ENDMDL
