MODEL 1
REMARK VINA RESULT:      -8.9      0.000      0.000
REMARK SMILES C(=C\n1ncc2c(NCCc3ccccc3)ncnc21)\c1ccccc1
REMARK SMILES IDX 8 1 7 3 3 4 4 5 20 6 5 7 19 8 6 9 18 10 17 11 2 12 1 13
REMARK SMILES IDX 21 14 22 15 26 16 23 17 25 18 24 19 9 20 10 21 11 22 12 23
REMARK SMILES IDX 16 24 13 25 15 26 14 27
REMARK H PARENT 8 2
ROOT
ATOM      1  N   UNL     1     -42.211  22.234   8.217  1.00  0.00    -0.369 N 
ATOM      2  H   UNL     1     -41.306  22.138   8.666  1.00  0.00     0.162 HD
ENDROOT
BRANCH   1   3
ATOM      3  C   UNL     1     -43.151  21.355   8.759  1.00  0.00     0.140 A 
ATOM      4  N   UNL     1     -43.614  17.832   9.041  1.00  0.00    -0.222 N 
ATOM      5  N   UNL     1     -42.433  17.780   8.349  1.00  0.00    -0.174 NA
ATOM      6  C   UNL     1     -43.979  19.170   9.251  1.00  0.00     0.167 A 
ATOM      7  C   UNL     1     -42.082  19.049   8.153  1.00  0.00     0.150 A 
ATOM      8  N   UNL     1     -45.082  19.615   9.894  1.00  0.00    -0.216 NA
ATOM      9  C   UNL     1     -43.003  19.963   8.678  1.00  0.00     0.082 A 
ATOM     10  C   UNL     1     -45.126  20.955   9.926  1.00  0.00     0.226 A 
ATOM     11  N   UNL     1     -44.245  21.829   9.406  1.00  0.00    -0.219 NA
BRANCH   4  12
ATOM     12  C   UNL     1     -44.377  16.744   9.497  1.00  0.00     0.116 C 
ATOM     13  C   UNL     1     -44.025  15.731  10.305  1.00  0.00     0.028 C 
BRANCH  13  14
ATOM     14  C   UNL     1     -42.716  15.486  10.915  1.00  0.00    -0.024 A 
ATOM     15  C   UNL     1     -42.473  15.816  12.252  1.00  0.00     0.008 A 
ATOM     16  C   UNL     1     -41.680  14.955  10.138  1.00  0.00     0.008 A 
ATOM     17  C   UNL     1     -41.210  15.607  12.810  1.00  0.00     0.001 A 
ATOM     18  C   UNL     1     -40.417  14.747  10.697  1.00  0.00     0.001 A 
ATOM     19  C   UNL     1     -40.183  15.073  12.032  1.00  0.00     0.000 A 
ENDBRANCH  13  14
ENDBRANCH   4  12
ENDBRANCH   1   3
BRANCH   1  20
ATOM     20  C   UNL     1     -42.138  22.248   6.757  1.00  0.00     0.119 C 
BRANCH  20  21
ATOM     21  C   UNL     1     -40.679  22.150   6.287  1.00  0.00     0.056 C 
BRANCH  21  22
ATOM     22  C   UNL     1     -40.314  23.179   5.239  1.00  0.00    -0.046 A 
ATOM     23  C   UNL     1     -41.312  23.954   4.629  1.00  0.00     0.004 A 
ATOM     24  C   UNL     1     -38.977  23.385   4.876  1.00  0.00     0.004 A 
ATOM     25  C   UNL     1     -40.976  24.918   3.679  1.00  0.00     0.000 A 
ATOM     26  C   UNL     1     -38.643  24.350   3.926  1.00  0.00     0.000 A 
ATOM     27  C   UNL     1     -39.641  25.117   3.328  1.00  0.00     0.000 A 
ENDBRANCH  21  22
ENDBRANCH  20  21
ENDBRANCH   1  20
TORSDOF 6
ENDMDL
MODEL 2
REMARK VINA RESULT:      -8.9      1.291      2.310
REMARK SMILES C(=C\n1ncc2c(NCCc3ccccc3)ncnc21)\c1ccccc1
REMARK SMILES IDX 8 1 7 3 3 4 4 5 20 6 5 7 19 8 6 9 18 10 17 11 2 12 1 13
REMARK SMILES IDX 21 14 22 15 26 16 23 17 25 18 24 19 9 20 10 21 11 22 12 23
REMARK SMILES IDX 16 24 13 25 15 26 14 27
REMARK H PARENT 8 2
ROOT
ATOM      1  N   UNL     1     -44.225  21.145   8.218  1.00  0.00    -0.369 N 
ATOM      2  H   UNL     1     -44.957  21.813   7.996  1.00  0.00     0.162 HD
ENDROOT
BRANCH   1   3
ATOM      3  C   UNL     1     -44.744  19.982   8.791  1.00  0.00     0.140 A 
ATOM      4  N   UNL     1     -43.801  16.561   9.130  1.00  0.00    -0.222 N 
ATOM      5  N   UNL     1     -42.702  16.956   8.416  1.00  0.00    -0.174 NA
ATOM      6  C   UNL     1     -44.654  17.658   9.329  1.00  0.00     0.167 A 
ATOM      7  C   UNL     1     -42.873  18.258   8.195  1.00  0.00     0.150 A 
ATOM      8  N   UNL     1     -45.834  17.655   9.988  1.00  0.00    -0.216 NA
ATOM      9  C   UNL     1     -44.069  18.755   8.726  1.00  0.00     0.082 A 
ATOM     10  C   UNL     1     -46.394  18.873  10.003  1.00  0.00     0.226 A 
ATOM     11  N   UNL     1     -45.927  20.009   9.453  1.00  0.00    -0.219 NA
BRANCH   4  12
ATOM     12  C   UNL     1     -44.078  15.273   9.616  1.00  0.00     0.116 C 
ATOM     13  C   UNL     1     -43.397  14.530  10.504  1.00  0.00     0.028 C 
BRANCH  13  14
ATOM     14  C   UNL     1     -42.151  14.874  11.191  1.00  0.00    -0.024 A 
ATOM     15  C   UNL     1     -40.909  14.641  10.590  1.00  0.00     0.008 A 
ATOM     16  C   UNL     1     -42.199  15.406  12.485  1.00  0.00     0.008 A 
ATOM     17  C   UNL     1     -39.730  14.945  11.272  1.00  0.00     0.001 A 
ATOM     18  C   UNL     1     -41.018  15.708  13.166  1.00  0.00     0.001 A 
ATOM     19  C   UNL     1     -39.784  15.478  12.560  1.00  0.00     0.000 A 
ENDBRANCH  13  14
ENDBRANCH   4  12
ENDBRANCH   1   3
BRANCH   1  20
ATOM     20  C   UNL     1     -43.092  21.739   8.926  1.00  0.00     0.119 C 
BRANCH  20  21
ATOM     21  C   UNL     1     -42.639  23.033   8.233  1.00  0.00     0.056 C 
BRANCH  21  22
ATOM     22  C   UNL     1     -41.614  22.806   7.143  1.00  0.00    -0.046 A 
ATOM     23  C   UNL     1     -41.033  21.542   6.970  1.00  0.00     0.004 A 
ATOM     24  C   UNL     1     -41.247  23.847   6.281  1.00  0.00     0.004 A 
ATOM     25  C   UNL     1     -40.105  21.324   5.951  1.00  0.00     0.000 A 
ATOM     26  C   UNL     1     -40.319  23.627   5.263  1.00  0.00     0.000 A 
ATOM     27  C   UNL     1     -39.748  22.366   5.097  1.00  0.00     0.000 A 
ENDBRANCH  21  22
ENDBRANCH  20  21
ENDBRANCH   1  20
TORSDOF 6
ENDMDL
MODEL 3
REMARK VINA RESULT:      -8.4     22.829     24.003
REMARK SMILES C(=C\n1ncc2c(NCCc3ccccc3)ncnc21)\c1ccccc1
REMARK SMILES IDX 8 1 7 3 3 4 4 5 20 6 5 7 19 8 6 9 18 10 17 11 2 12 1 13
REMARK SMILES IDX 21 14 22 15 26 16 23 17 25 18 24 19 9 20 10 21 11 22 12 23
REMARK SMILES IDX 16 24 13 25 15 26 14 27
REMARK H PARENT 8 2
ROOT
ATOM      1  N   UNL     1     -48.921  13.651 -15.164  1.00  0.00    -0.369 N 
ATOM      2  H   UNL     1     -49.368  13.720 -16.073  1.00  0.00     0.162 HD
ENDROOT
BRANCH   1   3
ATOM      3  C   UNL     1     -49.833  13.307 -14.165  1.00  0.00     0.140 A 
ATOM      4  N   UNL     1     -51.387  10.353 -12.914  1.00  0.00    -0.222 N 
ATOM      5  N   UNL     1     -50.660   9.742 -13.901  1.00  0.00    -0.174 NA
ATOM      6  C   UNL     1     -51.139  11.734 -12.932  1.00  0.00     0.167 A 
ATOM      7  C   UNL     1     -49.979  10.720 -14.495  1.00  0.00     0.150 A 
ATOM      8  N   UNL     1     -51.676  12.662 -12.109  1.00  0.00    -0.216 NA
ATOM      9  C   UNL     1     -50.238  11.982 -13.949  1.00  0.00     0.082 A 
ATOM     10  C   UNL     1     -51.220  13.891 -12.388  1.00  0.00     0.226 A 
ATOM     11  N   UNL     1     -50.351  14.258 -13.348  1.00  0.00    -0.219 NA
BRANCH   4  12
ATOM     12  C   UNL     1     -52.256   9.738 -11.999  1.00  0.00     0.116 C 
ATOM     13  C   UNL     1     -52.035   9.366 -10.727  1.00  0.00     0.028 C 
BRANCH  13  14
ATOM     14  C   UNL     1     -50.794   9.491  -9.961  1.00  0.00    -0.024 A 
ATOM     15  C   UNL     1     -50.634  10.505  -9.010  1.00  0.00     0.008 A 
ATOM     16  C   UNL     1     -49.734   8.612 -10.212  1.00  0.00     0.008 A 
ATOM     17  C   UNL     1     -49.432  10.631  -8.311  1.00  0.00     0.001 A 
ATOM     18  C   UNL     1     -48.532   8.740  -9.513  1.00  0.00     0.001 A 
ATOM     19  C   UNL     1     -48.381   9.749  -8.563  1.00  0.00     0.000 A 
ENDBRANCH  13  14
ENDBRANCH   4  12
ENDBRANCH   1   3
BRANCH   1  20
ATOM     20  C   UNL     1     -48.054  14.787 -14.855  1.00  0.00     0.119 C 
BRANCH  20  21
ATOM     21  C   UNL     1     -46.907  14.886 -15.872  1.00  0.00     0.056 C 
BRANCH  21  22
ATOM     22  C   UNL     1     -46.871  16.204 -16.614  1.00  0.00    -0.046 A 
ATOM     23  C   UNL     1     -45.794  16.514 -17.456  1.00  0.00     0.004 A 
ATOM     24  C   UNL     1     -47.920  17.125 -16.484  1.00  0.00     0.004 A 
ATOM     25  C   UNL     1     -45.770  17.720 -18.158  1.00  0.00     0.000 A 
ATOM     26  C   UNL     1     -47.893  18.329 -17.187  1.00  0.00     0.000 A 
ATOM     27  C   UNL     1     -46.820  18.627 -18.024  1.00  0.00     0.000 A 
ENDBRANCH  21  22
ENDBRANCH  20  21
ENDBRANCH   1  20
TORSDOF 6
ENDMDL
MODEL 4
REMARK VINA RESULT:      -8.4     22.305     23.543
REMARK SMILES C(=C\n1ncc2c(NCCc3ccccc3)ncnc21)\c1ccccc1
REMARK SMILES IDX 8 1 7 3 3 4 4 5 20 6 5 7 19 8 6 9 18 10 17 11 2 12 1 13
REMARK SMILES IDX 21 14 22 15 26 16 23 17 25 18 24 19 9 20 10 21 11 22 12 23
REMARK SMILES IDX 16 24 13 25 15 26 14 27
REMARK H PARENT 8 2
ROOT
ATOM      1  N   UNL     1     -49.187  14.417 -14.517  1.00  0.00    -0.369 N 
ATOM      2  H   UNL     1     -48.610  14.787 -13.768  1.00  0.00     0.162 HD
ENDROOT
BRANCH   1   3
ATOM      3  C   UNL     1     -49.903  13.290 -14.109  1.00  0.00     0.140 A 
ATOM      4  N   UNL     1     -51.694  12.205 -11.224  1.00  0.00    -0.222 N 
ATOM      5  N   UNL     1     -51.318  13.424 -10.726  1.00  0.00    -0.174 NA
ATOM      6  C   UNL     1     -51.196  12.054 -12.528  1.00  0.00     0.167 A 
ATOM      7  C   UNL     1     -50.622  14.005 -11.701  1.00  0.00     0.150 A 
ATOM      8  N   UNL     1     -51.362  10.984 -13.337  1.00  0.00    -0.216 NA
ATOM      9  C   UNL     1     -50.500  13.205 -12.843  1.00  0.00     0.082 A 
ATOM     10  C   UNL     1     -50.765  11.167 -14.523  1.00  0.00     0.226 A 
ATOM     11  N   UNL     1     -50.060  12.233 -14.944  1.00  0.00    -0.219 NA
BRANCH   4  12
ATOM     12  C   UNL     1     -52.461  11.224 -10.575  1.00  0.00     0.116 C 
ATOM     13  C   UNL     1     -52.120  10.396  -9.574  1.00  0.00     0.028 C 
BRANCH  13  14
ATOM     14  C   UNL     1     -50.822  10.288  -8.904  1.00  0.00    -0.024 A 
ATOM     15  C   UNL     1     -49.920   9.274  -9.242  1.00  0.00     0.008 A 
ATOM     16  C   UNL     1     -50.496  11.186  -7.881  1.00  0.00     0.008 A 
ATOM     17  C   UNL     1     -48.701   9.165  -8.571  1.00  0.00     0.001 A 
ATOM     18  C   UNL     1     -49.276  11.075  -7.210  1.00  0.00     0.001 A 
ATOM     19  C   UNL     1     -48.379  10.065  -7.555  1.00  0.00     0.000 A 
ENDBRANCH  13  14
ENDBRANCH   4  12
ENDBRANCH   1   3
BRANCH   1  20
ATOM     20  C   UNL     1     -48.473  14.278 -15.785  1.00  0.00     0.119 C 
BRANCH  20  21
ATOM     21  C   UNL     1     -47.081  14.923 -15.697  1.00  0.00     0.056 C 
BRANCH  21  22
ATOM     22  C   UNL     1     -46.957  16.197 -16.504  1.00  0.00    -0.046 A 
ATOM     23  C   UNL     1     -45.846  16.404 -17.335  1.00  0.00     0.004 A 
ATOM     24  C   UNL     1     -47.955  17.179 -16.447  1.00  0.00     0.004 A 
ATOM     25  C   UNL     1     -45.740  17.568 -18.096  1.00  0.00     0.000 A 
ATOM     26  C   UNL     1     -47.847  18.342 -17.209  1.00  0.00     0.000 A 
ATOM     27  C   UNL     1     -46.741  18.537 -18.034  1.00  0.00     0.000 A 
ENDBRANCH  21  22
ENDBRANCH  20  21
ENDBRANCH   1  20
TORSDOF 6
ENDMDL
MODEL 5
REMARK VINA RESULT:      -8.1     20.675     21.701
REMARK SMILES C(=C\n1ncc2c(NCCc3ccccc3)ncnc21)\c1ccccc1
REMARK SMILES IDX 8 1 7 3 3 4 4 5 20 6 5 7 19 8 6 9 18 10 17 11 2 12 1 13
REMARK SMILES IDX 21 14 22 15 26 16 23 17 25 18 24 19 9 20 10 21 11 22 12 23
REMARK SMILES IDX 16 24 13 25 15 26 14 27
REMARK H PARENT 8 2
ROOT
ATOM      1  N   UNL     1     -50.430  11.935 -13.015  1.00  0.00    -0.369 N 
ATOM      2  H   UNL     1     -51.267  11.395 -13.213  1.00  0.00     0.162 HD
ENDROOT
BRANCH   1   3
ATOM      3  C   UNL     1     -50.537  12.629 -11.807  1.00  0.00     0.140 A 
ATOM      4  N   UNL     1     -49.795  12.064  -8.367  1.00  0.00    -0.222 N 
ATOM      5  N   UNL     1     -49.375  10.843  -8.820  1.00  0.00    -0.174 NA
ATOM      6  C   UNL     1     -50.265  12.831  -9.444  1.00  0.00     0.167 A 
ATOM      7  C   UNL     1     -49.570  10.868 -10.137  1.00  0.00     0.150 A 
ATOM      8  N   UNL     1     -50.760  14.088  -9.387  1.00  0.00    -0.216 NA
ATOM      9  C   UNL     1     -50.129  12.069 -10.589  1.00  0.00     0.082 A 
ATOM     10  C   UNL     1     -51.111  14.535 -10.601  1.00  0.00     0.226 A 
ATOM     11  N   UNL     1     -51.031  13.891 -11.779  1.00  0.00    -0.219 NA
BRANCH   4  12
ATOM     12  C   UNL     1     -49.778  12.528  -7.041  1.00  0.00     0.116 C 
ATOM     13  C   UNL     1     -49.617  11.843  -5.898  1.00  0.00     0.028 C 
BRANCH  13  14
ATOM     14  C   UNL     1     -49.435  10.399  -5.738  1.00  0.00    -0.024 A 
ATOM     15  C   UNL     1     -48.160   9.848  -5.569  1.00  0.00     0.008 A 
ATOM     16  C   UNL     1     -50.547   9.551  -5.797  1.00  0.00     0.008 A 
ATOM     17  C   UNL     1     -48.001   8.466  -5.451  1.00  0.00     0.001 A 
ATOM     18  C   UNL     1     -50.386   8.169  -5.680  1.00  0.00     0.001 A 
ATOM     19  C   UNL     1     -49.113   7.627  -5.507  1.00  0.00     0.000 A 
ENDBRANCH  13  14
ENDBRANCH   4  12
ENDBRANCH   1   3
BRANCH   1  20
ATOM     20  C   UNL     1     -49.968  12.728 -14.152  1.00  0.00     0.119 C 
BRANCH  20  21
ATOM     21  C   UNL     1     -48.441  12.635 -14.293  1.00  0.00     0.056 C 
BRANCH  21  22
ATOM     22  C   UNL     1     -47.840  13.769 -15.095  1.00  0.00    -0.046 A 
ATOM     23  C   UNL     1     -48.661  14.773 -15.627  1.00  0.00     0.004 A 
ATOM     24  C   UNL     1     -46.456  13.842 -15.301  1.00  0.00     0.004 A 
ATOM     25  C   UNL     1     -48.107  15.831 -16.348  1.00  0.00     0.000 A 
ATOM     26  C   UNL     1     -45.904  14.901 -16.022  1.00  0.00     0.000 A 
ATOM     27  C   UNL     1     -46.728  15.896 -16.544  1.00  0.00     0.000 A 
ENDBRANCH  21  22
ENDBRANCH  20  21
ENDBRANCH   1  20
TORSDOF 6
ENDMDL
MODEL 6
REMARK VINA RESULT:      -8.0      1.261      2.475
REMARK SMILES C(=C\n1ncc2c(NCCc3ccccc3)ncnc21)\c1ccccc1
REMARK SMILES IDX 8 1 7 3 3 4 4 5 20 6 5 7 19 8 6 9 18 10 17 11 2 12 1 13
REMARK SMILES IDX 21 14 22 15 26 16 23 17 25 18 24 19 9 20 10 21 11 22 12 23
REMARK SMILES IDX 16 24 13 25 15 26 14 27
REMARK H PARENT 8 2
ROOT
ATOM      1  N   UNL     1     -43.935  21.426   9.386  1.00  0.00    -0.369 N 
ATOM      2  H   UNL     1     -43.608  21.717  10.303  1.00  0.00     0.162 HD
ENDROOT
BRANCH   1   3
ATOM      3  C   UNL     1     -43.774  20.053   9.193  1.00  0.00     0.140 A 
ATOM      4  N   UNL     1     -45.018  17.027  10.609  1.00  0.00    -0.222 N 
ATOM      5  N   UNL     1     -45.707  17.879  11.431  1.00  0.00    -0.174 NA
ATOM      6  C   UNL     1     -44.240  17.768   9.707  1.00  0.00     0.167 A 
ATOM      7  C   UNL     1     -45.368  19.104  11.033  1.00  0.00     0.150 A 
ATOM      8  N   UNL     1     -43.427  17.274   8.747  1.00  0.00    -0.216 NA
ATOM      9  C   UNL     1     -44.453  19.107   9.974  1.00  0.00     0.082 A 
ATOM     10  C   UNL     1     -42.834  18.255   8.051  1.00  0.00     0.226 A 
ATOM     11  N   UNL     1     -42.958  19.585   8.218  1.00  0.00    -0.219 NA
BRANCH   4  12
ATOM     12  C   UNL     1     -45.054  15.623  10.624  1.00  0.00     0.116 C 
ATOM     13  C   UNL     1     -44.092  14.747  10.959  1.00  0.00     0.028 C 
BRANCH  13  14
ATOM     14  C   UNL     1     -42.722  15.041  11.385  1.00  0.00    -0.024 A 
ATOM     15  C   UNL     1     -42.447  15.432  12.700  1.00  0.00     0.008 A 
ATOM     16  C   UNL     1     -41.679  14.972  10.455  1.00  0.00     0.008 A 
ATOM     17  C   UNL     1     -41.140  15.741  13.082  1.00  0.00     0.001 A 
ATOM     18  C   UNL     1     -40.372  15.283  10.839  1.00  0.00     0.001 A 
ATOM     19  C   UNL     1     -40.103  15.667  12.152  1.00  0.00     0.000 A 
ENDBRANCH  13  14
ENDBRANCH   4  12
ENDBRANCH   1   3
BRANCH   1  20
ATOM     20  C   UNL     1     -43.444  22.272   8.300  1.00  0.00     0.119 C 
BRANCH  20  21
ATOM     21  C   UNL     1     -41.955  22.596   8.495  1.00  0.00     0.056 C 
BRANCH  21  22
ATOM     22  C   UNL     1     -41.184  22.693   7.197  1.00  0.00    -0.046 A 
ATOM     23  C   UNL     1     -40.534  21.566   6.673  1.00  0.00     0.004 A 
ATOM     24  C   UNL     1     -41.124  23.902   6.491  1.00  0.00     0.004 A 
ATOM     25  C   UNL     1     -39.841  21.647   5.465  1.00  0.00     0.000 A 
ATOM     26  C   UNL     1     -40.431  23.981   5.283  1.00  0.00     0.000 A 
ATOM     27  C   UNL     1     -39.791  22.854   4.769  1.00  0.00     0.000 A 
ENDBRANCH  21  22
ENDBRANCH  20  21
ENDBRANCH   1  20
TORSDOF 6
ENDMDL
MODEL 7
REMARK VINA RESULT:      -7.9     21.943     22.999
REMARK SMILES C(=C\n1ncc2c(NCCc3ccccc3)ncnc21)\c1ccccc1
REMARK SMILES IDX 8 1 7 3 3 4 4 5 20 6 5 7 19 8 6 9 18 10 17 11 2 12 1 13
REMARK SMILES IDX 21 14 22 15 26 16 23 17 25 18 24 19 9 20 10 21 11 22 12 23
REMARK SMILES IDX 16 24 13 25 15 26 14 27
REMARK H PARENT 8 2
ROOT
ATOM      1  N   UNL     1     -50.263  13.754 -13.925  1.00  0.00    -0.369 N 
ATOM      2  H   UNL     1     -50.986  14.128 -14.532  1.00  0.00     0.162 HD
ENDROOT
BRANCH   1   3
ATOM      3  C   UNL     1     -50.714  13.611 -12.612  1.00  0.00     0.140 A 
ATOM      4  N   UNL     1     -52.339  11.129 -10.636  1.00  0.00    -0.222 N 
ATOM      5  N   UNL     1     -52.308  10.407 -11.799  1.00  0.00    -0.174 NA
ATOM      6  C   UNL     1     -51.747  12.384 -10.843  1.00  0.00     0.167 A 
ATOM      7  C   UNL     1     -51.704  11.194 -12.687  1.00  0.00     0.150 A 
ATOM      8  N   UNL     1     -51.597  13.368  -9.928  1.00  0.00    -0.216 NA
ATOM      9  C   UNL     1     -51.340  12.440 -12.162  1.00  0.00     0.082 A 
ATOM     10  C   UNL     1     -50.981  14.438 -10.451  1.00  0.00     0.226 A 
ATOM     11  N   UNL     1     -50.544  14.611 -11.712  1.00  0.00    -0.219 NA
BRANCH   4  12
ATOM     12  C   UNL     1     -52.865  10.720  -9.399  1.00  0.00     0.116 C 
ATOM     13  C   UNL     1     -52.264  10.078  -8.385  1.00  0.00     0.028 C 
BRANCH  13  14
ATOM     14  C   UNL     1     -50.878   9.609  -8.317  1.00  0.00    -0.024 A 
ATOM     15  C   UNL     1     -49.827  10.504  -8.093  1.00  0.00     0.008 A 
ATOM     16  C   UNL     1     -50.596   8.254  -8.522  1.00  0.00     0.008 A 
ATOM     17  C   UNL     1     -48.508  10.047  -8.064  1.00  0.00     0.001 A 
ATOM     18  C   UNL     1     -49.275   7.798  -8.495  1.00  0.00     0.001 A 
ATOM     19  C   UNL     1     -48.233   8.695  -8.266  1.00  0.00     0.000 A 
ENDBRANCH  13  14
ENDBRANCH   4  12
ENDBRANCH   1   3
BRANCH   1  20
ATOM     20  C   UNL     1     -48.973  14.426 -14.073  1.00  0.00     0.119 C 
BRANCH  20  21
ATOM     21  C   UNL     1     -48.190  13.841 -15.258  1.00  0.00     0.056 C 
BRANCH  21  22
ATOM     22  C   UNL     1     -47.345  14.864 -15.985  1.00  0.00    -0.046 A 
ATOM     23  C   UNL     1     -47.897  16.095 -16.368  1.00  0.00     0.004 A 
ATOM     24  C   UNL     1     -45.998  14.604 -16.270  1.00  0.00     0.004 A 
ATOM     25  C   UNL     1     -47.114  17.048 -17.019  1.00  0.00     0.000 A 
ATOM     26  C   UNL     1     -45.217  15.559 -16.921  1.00  0.00     0.000 A 
ATOM     27  C   UNL     1     -45.773  16.781 -17.295  1.00  0.00     0.000 A 
ENDBRANCH  21  22
ENDBRANCH  20  21
ENDBRANCH   1  20
TORSDOF 6
ENDMDL
MODEL 8
REMARK VINA RESULT:      -7.5     20.600     22.993
REMARK SMILES C(=C\n1ncc2c(NCCc3ccccc3)ncnc21)\c1ccccc1
REMARK SMILES IDX 8 1 7 3 3 4 4 5 20 6 5 7 19 8 6 9 18 10 17 11 2 12 1 13
REMARK SMILES IDX 21 14 22 15 26 16 23 17 25 18 24 19 9 20 10 21 11 22 12 23
REMARK SMILES IDX 16 24 13 25 15 26 14 27
REMARK H PARENT 8 2
ROOT
ATOM      1  N   UNL     1     -50.009  13.035  -8.187  1.00  0.00    -0.369 N 
ATOM      2  H   UNL     1     -50.970  13.141  -7.877  1.00  0.00     0.162 HD
ENDROOT
BRANCH   1   3
ATOM      3  C   UNL     1     -49.924  12.276  -9.356  1.00  0.00     0.140 A 
ATOM      4  N   UNL     1     -50.593  12.699 -12.831  1.00  0.00    -0.222 N 
ATOM      5  N   UNL     1     -50.980  13.954 -12.444  1.00  0.00    -0.174 NA
ATOM      6  C   UNL     1     -50.167  11.969 -11.711  1.00  0.00     0.167 A 
ATOM      7  C   UNL     1     -50.785  13.993 -11.127  1.00  0.00     0.150 A 
ATOM      8  N   UNL     1     -49.715  10.695 -11.701  1.00  0.00    -0.216 NA
ATOM      9  C   UNL     1     -50.292  12.791 -10.607  1.00  0.00     0.082 A 
ATOM     10  C   UNL     1     -49.381  10.301 -10.464  1.00  0.00     0.226 A 
ATOM     11  N   UNL     1     -49.460  11.003  -9.318  1.00  0.00    -0.219 NA
BRANCH   4  12
ATOM     12  C   UNL     1     -50.597  12.176 -14.135  1.00  0.00     0.116 C 
ATOM     13  C   UNL     1     -49.818  12.488 -15.184  1.00  0.00     0.028 C 
BRANCH  13  14
ATOM     14  C   UNL     1     -48.754  13.493 -15.241  1.00  0.00    -0.024 A 
ATOM     15  C   UNL     1     -47.510  13.257 -14.646  1.00  0.00     0.008 A 
ATOM     16  C   UNL     1     -48.997  14.722 -15.863  1.00  0.00     0.008 A 
ATOM     17  C   UNL     1     -46.517  14.238 -14.681  1.00  0.00     0.001 A 
ATOM     18  C   UNL     1     -48.003  15.703 -15.897  1.00  0.00     0.001 A 
ATOM     19  C   UNL     1     -46.764  15.460 -15.305  1.00  0.00     0.000 A 
ENDBRANCH  13  14
ENDBRANCH   4  12
ENDBRANCH   1   3
BRANCH   1  20
ATOM     20  C   UNL     1     -49.093  12.642  -7.118  1.00  0.00     0.119 C 
BRANCH  20  21
ATOM     21  C   UNL     1     -49.856  11.945  -5.981  1.00  0.00     0.056 C 
BRANCH  21  22
ATOM     22  C   UNL     1     -49.073  10.828  -5.326  1.00  0.00    -0.046 A 
ATOM     23  C   UNL     1     -48.721  10.909  -3.971  1.00  0.00     0.004 A 
ATOM     24  C   UNL     1     -48.705   9.691  -6.058  1.00  0.00     0.004 A 
ATOM     25  C   UNL     1     -48.018   9.871  -3.360  1.00  0.00     0.000 A 
ATOM     26  C   UNL     1     -48.002   8.653  -5.444  1.00  0.00     0.000 A 
ATOM     27  C   UNL     1     -47.659   8.742  -4.096  1.00  0.00     0.000 A 
ENDBRANCH  21  22
ENDBRANCH  20  21
ENDBRANCH   1  20
TORSDOF 6
ENDMDL
MODEL 9
REMARK VINA RESULT:      -7.1      2.014      3.642
REMARK SMILES C(=C\n1ncc2c(NCCc3ccccc3)ncnc21)\c1ccccc1
REMARK SMILES IDX 8 1 7 3 3 4 4 5 20 6 5 7 19 8 6 9 18 10 17 11 2 12 1 13
REMARK SMILES IDX 21 14 22 15 26 16 23 17 25 18 24 19 9 20 10 21 11 22 12 23
REMARK SMILES IDX 16 24 13 25 15 26 14 27
REMARK H PARENT 8 2
ROOT
ATOM      1  N   UNL     1     -43.585  18.666   8.370  1.00  0.00    -0.369 N 
ATOM      2  H   UNL     1     -44.250  18.870   7.630  1.00  0.00     0.162 HD
ENDROOT
BRANCH   1   3
ATOM      3  C   UNL     1     -44.139  17.837   9.347  1.00  0.00     0.140 A 
ATOM      4  N   UNL     1     -43.401  14.700  10.872  1.00  0.00    -0.222 N 
ATOM      5  N   UNL     1     -42.330  14.716  10.020  1.00  0.00    -0.174 NA
ATOM      6  C   UNL     1     -44.165  15.863  10.691  1.00  0.00     0.167 A 
ATOM      7  C   UNL     1     -42.430  15.860   9.347  1.00  0.00     0.150 A 
ATOM      8  N   UNL     1     -45.296  16.199  11.352  1.00  0.00    -0.216 NA
ATOM      9  C   UNL     1     -43.552  16.616   9.707  1.00  0.00     0.082 A 
ATOM     10  C   UNL     1     -45.772  17.384  10.944  1.00  0.00     0.226 A 
ATOM     11  N   UNL     1     -45.270  18.201  10.000  1.00  0.00    -0.219 NA
BRANCH   4  12
ATOM     12  C   UNL     1     -43.728  13.702  11.804  1.00  0.00     0.116 C 
ATOM     13  C   UNL     1     -43.437  13.627  13.113  1.00  0.00     0.028 C 
BRANCH  13  14
ATOM     14  C   UNL     1     -42.668  14.580  13.916  1.00  0.00    -0.024 A 
ATOM     15  C   UNL     1     -41.658  15.356  13.338  1.00  0.00     0.008 A 
ATOM     16  C   UNL     1     -42.918  14.688  15.289  1.00  0.00     0.008 A 
ATOM     17  C   UNL     1     -40.911  16.236  14.124  1.00  0.00     0.001 A 
ATOM     18  C   UNL     1     -42.170  15.569  16.073  1.00  0.00     0.001 A 
ATOM     19  C   UNL     1     -41.167  16.342  15.490  1.00  0.00     0.000 A 
ENDBRANCH  13  14
ENDBRANCH   4  12
ENDBRANCH   1   3
BRANCH   1  20
ATOM     20  C   UNL     1     -42.894  19.852   8.874  1.00  0.00     0.119 C 
BRANCH  20  21
ATOM     21  C   UNL     1     -43.409  21.118   8.173  1.00  0.00     0.056 C 
BRANCH  21  22
ATOM     22  C   UNL     1     -42.322  21.901   7.471  1.00  0.00    -0.046 A 
ATOM     23  C   UNL     1     -42.237  23.292   7.626  1.00  0.00     0.004 A 
ATOM     24  C   UNL     1     -41.374  21.248   6.672  1.00  0.00     0.004 A 
ATOM     25  C   UNL     1     -41.222  24.014   6.997  1.00  0.00     0.000 A 
ATOM     26  C   UNL     1     -40.359  21.971   6.045  1.00  0.00     0.000 A 
ATOM     27  C   UNL     1     -40.283  23.353   6.207  1.00  0.00     0.000 A 
ENDBRANCH  21  22
ENDBRANCH  20  21
ENDBRANCH   1  20
TORSDOF 6
ENDMDL
