MODEL 1
REMARK VINA RESULT:      -7.7      0.000      0.000
REMARK SMILES CC(C)(C)N1CN(c2ccc(Cl)cc2)C(N)=C2C=NN=C21
REMARK SMILES IDX 5 1 6 2 7 3 15 4 17 5 18 6 19 7 20 8 21 9 2 10 1 11 3 12
REMARK SMILES IDX 4 13 8 14 9 15 14 16 10 17 13 18 11 19 12 20 16 21
REMARK H PARENT 16 22 16 23
ROOT
ATOM      1  N   UNL     1     -43.903  17.190  10.107  1.00  0.00    -0.331 N 
ATOM      2  C   UNL     1     -43.161  18.263   9.433  1.00  0.00     0.246 C 
ATOM      3  N   UNL     1     -43.893  19.554   9.329  1.00  0.00    -0.309 N 
ATOM      4  C   UNL     1     -45.296  19.600   9.295  1.00  0.00     0.118 C 
ATOM      5  C   UNL     1     -45.974  18.494   9.619  1.00  0.00     0.080 C 
ATOM      6  C   UNL     1     -47.368  18.131   9.692  1.00  0.00     0.151 C 
ATOM      7  N   UNL     1     -47.511  16.898  10.076  1.00  0.00    -0.156 NA
ATOM      8  N   UNL     1     -46.185  16.353  10.290  1.00  0.00    -0.132 NA
ATOM      9  C   UNL     1     -45.283  17.273  10.029  1.00  0.00     0.165 C 
ENDROOT
BRANCH   1  10
ATOM     10  C   UNL     1     -43.215  15.885  10.331  1.00  0.00     0.035 C 
ATOM     11  C   UNL     1     -43.558  15.340  11.729  1.00  0.00     0.034 C 
ATOM     12  C   UNL     1     -41.688  16.051  10.182  1.00  0.00     0.034 C 
ATOM     13  C   UNL     1     -43.633  14.822   9.291  1.00  0.00     0.034 C 
ENDBRANCH   1  10
BRANCH   3  14
ATOM     14  C   UNL     1     -43.072  20.530   8.692  1.00  0.00     0.044 A 
ATOM     15  C   UNL     1     -43.361  21.896   8.840  1.00  0.00     0.028 A 
ATOM     16  C   UNL     1     -41.960  20.163   7.916  1.00  0.00     0.028 A 
ATOM     17  C   UNL     1     -42.560  22.869   8.234  1.00  0.00     0.022 A 
ATOM     18  C   UNL     1     -41.157  21.134   7.308  1.00  0.00     0.022 A 
ATOM     19  C   UNL     1     -41.461  22.482   7.471  1.00  0.00     0.041 A 
ATOM     20  Cl  UNL     1     -40.475  23.677   6.725  1.00  0.00    -0.084 Cl
ENDBRANCH   3  14
BRANCH   4  21
ATOM     21  N   UNL     1     -45.963  20.780   8.993  1.00  0.00    -0.384 N 
ATOM     22  H   UNL     1     -45.980  21.391   9.807  1.00  0.00     0.158 HD
ATOM     23  H   UNL     1     -46.901  20.637   8.630  1.00  0.00     0.158 HD
ENDBRANCH   4  21
TORSDOF 3
ENDMDL
MODEL 2
REMARK VINA RESULT:      -7.7      0.718      1.284
REMARK SMILES CC(C)(C)N1CN(c2ccc(Cl)cc2)C(N)=C2C=NN=C21
REMARK SMILES IDX 5 1 6 2 7 3 15 4 17 5 18 6 19 7 20 8 21 9 2 10 1 11 3 12
REMARK SMILES IDX 4 13 8 14 9 15 14 16 10 17 13 18 11 19 12 20 16 21
REMARK H PARENT 16 22 16 23
ROOT
ATOM      1  N   UNL     1     -44.701  16.968  10.057  1.00  0.00    -0.331 N 
ATOM      2  C   UNL     1     -43.826  18.000   9.484  1.00  0.00     0.246 C 
ATOM      3  N   UNL     1     -44.427  19.358   9.418  1.00  0.00    -0.309 N 
ATOM      4  C   UNL     1     -45.816  19.541   9.316  1.00  0.00     0.118 C 
ATOM      5  C   UNL     1     -46.611  18.489   9.541  1.00  0.00     0.080 C 
ATOM      6  C   UNL     1     -48.035  18.258   9.523  1.00  0.00     0.151 C 
ATOM      7  N   UNL     1     -48.313  17.027   9.827  1.00  0.00    -0.156 NA
ATOM      8  N   UNL     1     -47.057  16.346  10.076  1.00  0.00    -0.132 NA
ATOM      9  C   UNL     1     -46.061  17.187   9.914  1.00  0.00     0.165 C 
ENDROOT
BRANCH   1  10
ATOM     10  C   UNL     1     -44.151  15.594  10.240  1.00  0.00     0.035 C 
ATOM     11  C   UNL     1     -44.396  15.114  11.681  1.00  0.00     0.034 C 
ATOM     12  C   UNL     1     -42.642  15.573   9.918  1.00  0.00     0.034 C 
ATOM     13  C   UNL     1     -44.805  14.574   9.281  1.00  0.00     0.034 C 
ENDBRANCH   1  10
BRANCH   3  14
ATOM     14  C   UNL     1     -43.485  20.283   8.880  1.00  0.00     0.044 A 
ATOM     15  C   UNL     1     -42.372  19.815   8.162  1.00  0.00     0.028 A 
ATOM     16  C   UNL     1     -43.641  21.669   9.038  1.00  0.00     0.028 A 
ATOM     17  C   UNL     1     -41.443  20.706   7.616  1.00  0.00     0.022 A 
ATOM     18  C   UNL     1     -42.715  22.564   8.494  1.00  0.00     0.022 A 
ATOM     19  C   UNL     1     -41.621  22.077   7.784  1.00  0.00     0.041 A 
ATOM     20  Cl  UNL     1     -40.480  23.175   7.112  1.00  0.00    -0.084 Cl
ENDBRANCH   3  14
BRANCH   4  21
ATOM     21  N   UNL     1     -46.352  20.793   9.049  1.00  0.00    -0.384 N 
ATOM     22  H   UNL     1     -45.790  21.518   9.492  1.00  0.00     0.158 HD
ATOM     23  H   UNL     1     -47.328  20.884   9.314  1.00  0.00     0.158 HD
ENDBRANCH   4  21
TORSDOF 3
ENDMDL
MODEL 3
REMARK VINA RESULT:      -7.3      1.402      2.260
REMARK SMILES CC(C)(C)N1CN(c2ccc(Cl)cc2)C(N)=C2C=NN=C21
REMARK SMILES IDX 5 1 6 2 7 3 15 4 17 5 18 6 19 7 20 8 21 9 2 10 1 11 3 12
REMARK SMILES IDX 4 13 8 14 9 15 14 16 10 17 13 18 11 19 12 20 16 21
REMARK H PARENT 16 22 16 23
ROOT
ATOM      1  N   UNL     1     -45.934  16.997  10.238  1.00  0.00    -0.331 N 
ATOM      2  C   UNL     1     -44.866  17.854   9.708  1.00  0.00     0.246 C 
ATOM      3  N   UNL     1     -45.224  19.292   9.588  1.00  0.00    -0.309 N 
ATOM      4  C   UNL     1     -46.554  19.702   9.397  1.00  0.00     0.118 C 
ATOM      5  C   UNL     1     -47.527  18.804   9.585  1.00  0.00     0.080 C 
ATOM      6  C   UNL     1     -48.966  18.814   9.480  1.00  0.00     0.151 C 
ATOM      7  N   UNL     1     -49.465  17.654   9.782  1.00  0.00    -0.156 NA
ATOM      8  N   UNL     1     -48.359  16.778  10.118  1.00  0.00    -0.132 NA
ATOM      9  C   UNL     1     -47.227  17.437  10.008  1.00  0.00     0.165 C 
ENDROOT
BRANCH   1  10
ATOM     10  C   UNL     1     -45.636  15.554  10.472  1.00  0.00     0.035 C 
ATOM     11  C   UNL     1     -44.135  15.363  10.753  1.00  0.00     0.034 C 
ATOM     12  C   UNL     1     -46.063  14.713   9.251  1.00  0.00     0.034 C 
ATOM     13  C   UNL     1     -46.421  14.987  11.676  1.00  0.00     0.034 C 
ENDBRANCH   1  10
BRANCH   3  14
ATOM     14  C   UNL     1     -44.109  20.033   9.099  1.00  0.00     0.044 A 
ATOM     15  C   UNL     1     -43.072  19.375   8.418  1.00  0.00     0.028 A 
ATOM     16  C   UNL     1     -44.018  21.424   9.269  1.00  0.00     0.028 A 
ATOM     17  C   UNL     1     -41.976  20.086   7.920  1.00  0.00     0.022 A 
ATOM     18  C   UNL     1     -42.924  22.138   8.772  1.00  0.00     0.022 A 
ATOM     19  C   UNL     1     -41.909  21.466   8.099  1.00  0.00     0.041 A 
ATOM     20  Cl  UNL     1     -40.562  22.342   7.486  1.00  0.00    -0.084 Cl
ENDBRANCH   3  14
BRANCH   4  21
ATOM     21  N   UNL     1     -46.855  21.020   9.082  1.00  0.00    -0.384 N 
ATOM     22  H   UNL     1     -47.639  21.345   9.645  1.00  0.00     0.158 HD
ATOM     23  H   UNL     1     -47.034  21.173   8.094  1.00  0.00     0.158 HD
ENDBRANCH   4  21
TORSDOF 3
ENDMDL
MODEL 4
REMARK VINA RESULT:      -7.0     28.310     30.518
REMARK SMILES CC(C)(C)N1CN(c2ccc(Cl)cc2)C(N)=C2C=NN=C21
REMARK SMILES IDX 5 1 6 2 7 3 15 4 17 5 18 6 19 7 20 8 21 9 2 10 1 11 3 12
REMARK SMILES IDX 4 13 8 14 9 15 14 16 10 17 13 18 11 19 12 20 16 21
REMARK H PARENT 16 22 16 23
ROOT
ATOM      1  N   UNL     1     -41.401  27.693 -18.127  1.00  0.00    -0.331 N 
ATOM      2  C   UNL     1     -41.555  28.999 -18.782  1.00  0.00     0.246 C 
ATOM      3  N   UNL     1     -42.781  29.137 -19.611  1.00  0.00    -0.309 N 
ATOM      4  C   UNL     1     -43.390  28.024 -20.211  1.00  0.00     0.118 C 
ATOM      5  C   UNL     1     -43.007  26.804 -19.817  1.00  0.00     0.080 C 
ATOM      6  C   UNL     1     -43.358  25.452 -20.179  1.00  0.00     0.151 C 
ATOM      7  N   UNL     1     -42.686  24.590 -19.479  1.00  0.00    -0.156 NA
ATOM      8  N   UNL     1     -41.825  25.336 -18.581  1.00  0.00    -0.132 NA
ATOM      9  C   UNL     1     -42.005  26.624 -18.768  1.00  0.00     0.165 C 
ENDROOT
BRANCH   1  10
ATOM     10  C   UNL     1     -40.243  27.493 -17.208  1.00  0.00     0.035 C 
ATOM     11  C   UNL     1     -39.271  26.456 -17.800  1.00  0.00     0.034 C 
ATOM     12  C   UNL     1     -40.734  27.034 -15.819  1.00  0.00     0.034 C 
ATOM     13  C   UNL     1     -39.456  28.801 -16.971  1.00  0.00     0.034 C 
ENDBRANCH   1  10
BRANCH   3  14
ATOM     14  C   UNL     1     -42.847  30.448 -20.169  1.00  0.00     0.044 A 
ATOM     15  C   UNL     1     -43.353  31.512 -19.406  1.00  0.00     0.028 A 
ATOM     16  C   UNL     1     -42.405  30.715 -21.475  1.00  0.00     0.028 A 
ATOM     17  C   UNL     1     -43.415  32.806 -19.930  1.00  0.00     0.022 A 
ATOM     18  C   UNL     1     -42.464  32.008 -22.003  1.00  0.00     0.022 A 
ATOM     19  C   UNL     1     -42.968  33.048 -21.227  1.00  0.00     0.041 A 
ATOM     20  Cl  UNL     1     -43.042  34.640 -21.873  1.00  0.00    -0.084 Cl
ENDBRANCH   3  14
BRANCH   4  21
ATOM     21  N   UNL     1     -44.406  28.182 -21.144  1.00  0.00    -0.384 N 
ATOM     22  H   UNL     1     -44.979  27.342 -21.185  1.00  0.00     0.158 HD
ATOM     23  H   UNL     1     -44.074  28.436 -22.070  1.00  0.00     0.158 HD
ENDBRANCH   4  21
TORSDOF 3
ENDMDL
MODEL 5
REMARK VINA RESULT:      -6.9     30.077     32.616
REMARK SMILES CC(C)(C)N1CN(c2ccc(Cl)cc2)C(N)=C2C=NN=C21
REMARK SMILES IDX 5 1 6 2 7 3 15 4 17 5 18 6 19 7 20 8 21 9 2 10 1 11 3 12
REMARK SMILES IDX 4 13 8 14 9 15 14 16 10 17 13 18 11 19 12 20 16 21
REMARK H PARENT 16 22 16 23
ROOT
ATOM      1  N   UNL     1     -43.890  31.449 -22.175  1.00  0.00    -0.331 N 
ATOM      2  C   UNL     1     -43.030  30.710 -21.242  1.00  0.00     0.246 C 
ATOM      3  N   UNL     1     -43.457  29.311 -20.978  1.00  0.00    -0.309 N 
ATOM      4  C   UNL     1     -44.802  28.923 -21.081  1.00  0.00     0.118 C 
ATOM      5  C   UNL     1     -45.660  29.764 -21.672  1.00  0.00     0.080 C 
ATOM      6  C   UNL     1     -47.074  29.754 -21.955  1.00  0.00     0.151 C 
ATOM      7  N   UNL     1     -47.436  30.838 -22.571  1.00  0.00    -0.156 NA
ATOM      8  N   UNL     1     -46.251  31.656 -22.744  1.00  0.00    -0.132 NA
ATOM      9  C   UNL     1     -45.212  31.040 -22.226  1.00  0.00     0.165 C 
ENDROOT
BRANCH   1  10
ATOM     10  C   UNL     1     -43.490  32.833 -22.564  1.00  0.00     0.035 C 
ATOM     11  C   UNL     1     -43.411  32.950 -24.097  1.00  0.00     0.034 C 
ATOM     12  C   UNL     1     -42.132  33.198 -21.928  1.00  0.00     0.034 C 
ATOM     13  C   UNL     1     -44.496  33.891 -22.058  1.00  0.00     0.034 C 
ENDBRANCH   1  10
BRANCH   3  14
ATOM     14  C   UNL     1     -42.537  28.679 -20.091  1.00  0.00     0.044 A 
ATOM     15  C   UNL     1     -42.056  27.392 -20.377  1.00  0.00     0.028 A 
ATOM     16  C   UNL     1     -42.082  29.317 -18.925  1.00  0.00     0.028 A 
ATOM     17  C   UNL     1     -41.143  26.760 -19.526  1.00  0.00     0.022 A 
ATOM     18  C   UNL     1     -41.170  28.689 -18.072  1.00  0.00     0.022 A 
ATOM     19  C   UNL     1     -40.705  27.414 -18.377  1.00  0.00     0.041 A 
ATOM     20  Cl  UNL     1     -39.582  26.639 -17.330  1.00  0.00    -0.084 Cl
ENDBRANCH   3  14
BRANCH   4  21
ATOM     21  N   UNL     1     -45.222  27.676 -20.638  1.00  0.00    -0.384 N 
ATOM     22  H   UNL     1     -45.782  27.219 -21.355  1.00  0.00     0.158 HD
ATOM     23  H   UNL     1     -45.721  27.704 -19.754  1.00  0.00     0.158 HD
ENDBRANCH   4  21
TORSDOF 3
ENDMDL
MODEL 6
REMARK VINA RESULT:      -6.9     24.692     25.320
REMARK SMILES CC(C)(C)N1CN(c2ccc(Cl)cc2)C(N)=C2C=NN=C21
REMARK SMILES IDX 5 1 6 2 7 3 15 4 17 5 18 6 19 7 20 8 21 9 2 10 1 11 3 12
REMARK SMILES IDX 4 13 8 14 9 15 14 16 10 17 13 18 11 19 12 20 16 21
REMARK H PARENT 16 22 16 23
ROOT
ATOM      1  N   UNL     1     -51.188  10.756 -14.205  1.00  0.00    -0.331 N 
ATOM      2  C   UNL     1     -50.208  11.647 -14.841  1.00  0.00     0.246 C 
ATOM      3  N   UNL     1     -49.779  12.798 -14.003  1.00  0.00    -0.309 N 
ATOM      4  C   UNL     1     -50.618  13.340 -13.017  1.00  0.00     0.118 C 
ATOM      5  C   UNL     1     -51.705  12.646 -12.660  1.00  0.00     0.080 C 
ATOM      6  C   UNL     1     -52.792  12.850 -11.734  1.00  0.00     0.151 C 
ATOM      7  N   UNL     1     -53.619  11.849 -11.755  1.00  0.00    -0.156 NA
ATOM      8  N   UNL     1     -53.117  10.891 -12.721  1.00  0.00    -0.132 NA
ATOM      9  C   UNL     1     -52.004  11.344 -13.252  1.00  0.00     0.165 C 
ENDROOT
BRANCH   1  10
ATOM     10  C   UNL     1     -51.612   9.529 -14.939  1.00  0.00     0.035 C 
ATOM     11  C   UNL     1     -51.817   8.367 -13.951  1.00  0.00     0.034 C 
ATOM     12  C   UNL     1     -50.559   9.149 -16.002  1.00  0.00     0.034 C 
ATOM     13  C   UNL     1     -52.936   9.739 -15.707  1.00  0.00     0.034 C 
ENDBRANCH   1  10
BRANCH   3  14
ATOM     14  C   UNL     1     -48.806  13.573 -14.701  1.00  0.00     0.044 A 
ATOM     15  C   UNL     1     -47.441  13.278 -14.560  1.00  0.00     0.028 A 
ATOM     16  C   UNL     1     -49.177  14.632 -15.545  1.00  0.00     0.028 A 
ATOM     17  C   UNL     1     -46.472  14.018 -15.245  1.00  0.00     0.022 A 
ATOM     18  C   UNL     1     -48.211  15.374 -16.232  1.00  0.00     0.022 A 
ATOM     19  C   UNL     1     -46.863  15.062 -16.079  1.00  0.00     0.041 A 
ATOM     20  Cl  UNL     1     -45.673  15.973 -16.924  1.00  0.00    -0.084 Cl
ENDBRANCH   3  14
BRANCH   4  21
ATOM     21  N   UNL     1     -50.298  14.534 -12.384  1.00  0.00    -0.384 N 
ATOM     22  H   UNL     1     -50.903  15.281 -12.720  1.00  0.00     0.158 HD
ATOM     23  H   UNL     1     -49.320  14.794 -12.475  1.00  0.00     0.158 HD
ENDBRANCH   4  21
TORSDOF 3
ENDMDL
MODEL 7
REMARK VINA RESULT:      -6.5     23.701     24.373
REMARK SMILES CC(C)(C)N1CN(c2ccc(Cl)cc2)C(N)=C2C=NN=C21
REMARK SMILES IDX 5 1 6 2 7 3 15 4 17 5 18 6 19 7 20 8 21 9 2 10 1 11 3 12
REMARK SMILES IDX 4 13 8 14 9 15 14 16 10 17 13 18 11 19 12 20 16 21
REMARK H PARENT 16 22 16 23
ROOT
ATOM      1  N   UNL     1     -51.380  12.523 -11.718  1.00  0.00    -0.331 N 
ATOM      2  C   UNL     1     -50.289  13.136 -12.487  1.00  0.00     0.246 C 
ATOM      3  N   UNL     1     -50.158  12.639 -13.882  1.00  0.00    -0.309 N 
ATOM      4  C   UNL     1     -50.574  11.348 -14.243  1.00  0.00     0.118 C 
ATOM      5  C   UNL     1     -51.328  10.661 -13.378  1.00  0.00     0.080 C 
ATOM      6  C   UNL     1     -51.927   9.349 -13.357  1.00  0.00     0.151 C 
ATOM      7  N   UNL     1     -52.589   9.154 -12.257  1.00  0.00    -0.156 NA
ATOM      8  N   UNL     1     -52.470  10.359 -11.459  1.00  0.00    -0.132 NA
ATOM      9  C   UNL     1     -51.740  11.242 -12.102  1.00  0.00     0.165 C 
ENDROOT
BRANCH   1  10
ATOM     10  C   UNL     1     -51.640  13.021 -10.336  1.00  0.00     0.035 C 
ATOM     11  C   UNL     1     -53.155  13.122 -10.086  1.00  0.00     0.034 C 
ATOM     12  C   UNL     1     -50.970  14.396 -10.126  1.00  0.00     0.034 C 
ATOM     13  C   UNL     1     -51.042  12.087  -9.260  1.00  0.00     0.034 C 
ENDBRANCH   1  10
BRANCH   3  14
ATOM     14  C   UNL     1     -49.096  13.322 -14.545  1.00  0.00     0.044 A 
ATOM     15  C   UNL     1     -49.379  14.395 -15.405  1.00  0.00     0.028 A 
ATOM     16  C   UNL     1     -47.753  12.956 -14.354  1.00  0.00     0.028 A 
ATOM     17  C   UNL     1     -48.350  15.085 -16.055  1.00  0.00     0.022 A 
ATOM     18  C   UNL     1     -46.722  13.644 -15.001  1.00  0.00     0.022 A 
ATOM     19  C   UNL     1     -47.026  14.706 -15.848  1.00  0.00     0.041 A 
ATOM     20  Cl  UNL     1     -45.761  15.555 -16.645  1.00  0.00    -0.084 Cl
ENDBRANCH   3  14
BRANCH   4  21
ATOM     21  N   UNL     1     -50.262  10.820 -15.489  1.00  0.00    -0.384 N 
ATOM     22  H   UNL     1     -51.095  10.422 -15.920  1.00  0.00     0.158 HD
ATOM     23  H   UNL     1     -49.509  10.139 -15.467  1.00  0.00     0.158 HD
ENDBRANCH   4  21
TORSDOF 3
ENDMDL
MODEL 8
REMARK VINA RESULT:      -6.4     20.488     21.715
REMARK SMILES CC(C)(C)N1CN(c2ccc(Cl)cc2)C(N)=C2C=NN=C21
REMARK SMILES IDX 5 1 6 2 7 3 15 4 17 5 18 6 19 7 20 8 21 9 2 10 1 11 3 12
REMARK SMILES IDX 4 13 8 14 9 15 14 16 10 17 13 18 11 19 12 20 16 21
REMARK H PARENT 16 22 16 23
ROOT
ATOM      1  N   UNL     1     -50.053  11.223 -11.278  1.00  0.00    -0.331 N 
ATOM      2  C   UNL     1     -49.607  10.535 -10.060  1.00  0.00     0.246 C 
ATOM      3  N   UNL     1     -50.159  11.089  -8.796  1.00  0.00    -0.309 N 
ATOM      4  C   UNL     1     -50.537  12.437  -8.689  1.00  0.00     0.118 C 
ATOM      5  C   UNL     1     -50.639  13.156  -9.813  1.00  0.00     0.080 C 
ATOM      6  C   UNL     1     -50.971  14.524 -10.127  1.00  0.00     0.151 C 
ATOM      7  N   UNL     1     -50.935  14.732 -11.409  1.00  0.00    -0.156 NA
ATOM      8  N   UNL     1     -50.570  13.479 -12.042  1.00  0.00    -0.132 NA
ATOM      9  C   UNL     1     -50.398  12.556 -11.123  1.00  0.00     0.165 C 
ENDROOT
BRANCH   1  10
ATOM     10  C   UNL     1     -49.617  10.683 -12.599  1.00  0.00     0.035 C 
ATOM     11  C   UNL     1     -50.735  10.866 -13.640  1.00  0.00     0.034 C 
ATOM     12  C   UNL     1     -49.243   9.191 -12.470  1.00  0.00     0.034 C 
ATOM     13  C   UNL     1     -48.352  11.395 -13.128  1.00  0.00     0.034 C 
ENDBRANCH   1  10
BRANCH   3  14
ATOM     14  C   UNL     1     -49.690  10.329  -7.684  1.00  0.00     0.044 A 
ATOM     15  C   UNL     1     -48.443  10.621  -7.109  1.00  0.00     0.028 A 
ATOM     16  C   UNL     1     -50.452   9.286  -7.132  1.00  0.00     0.028 A 
ATOM     17  C   UNL     1     -47.972   9.895  -6.010  1.00  0.00     0.022 A 
ATOM     18  C   UNL     1     -49.984   8.559  -6.034  1.00  0.00     0.022 A 
ATOM     19  C   UNL     1     -48.746   8.868  -5.478  1.00  0.00     0.041 A 
ATOM     20  Cl  UNL     1     -48.168   7.974  -4.127  1.00  0.00    -0.084 Cl
ENDBRANCH   3  14
BRANCH   4  21
ATOM     21  N   UNL     1     -50.855  12.994  -7.458  1.00  0.00    -0.384 N 
ATOM     22  H   UNL     1     -51.661  13.610  -7.549  1.00  0.00     0.158 HD
ATOM     23  H   UNL     1     -50.080  13.479  -7.017  1.00  0.00     0.158 HD
ENDBRANCH   4  21
TORSDOF 3
ENDMDL
MODEL 9
REMARK VINA RESULT:      -6.2     30.758     33.075
REMARK SMILES CC(C)(C)N1CN(c2ccc(Cl)cc2)C(N)=C2C=NN=C21
REMARK SMILES IDX 5 1 6 2 7 3 15 4 17 5 18 6 19 7 20 8 21 9 2 10 1 11 3 12
REMARK SMILES IDX 4 13 8 14 9 15 14 16 10 17 13 18 11 19 12 20 16 21
REMARK H PARENT 16 22 16 23
ROOT
ATOM      1  N   UNL     1     -46.445  29.502 -22.266  1.00  0.00    -0.331 N 
ATOM      2  C   UNL     1     -45.389  28.872 -21.462  1.00  0.00     0.246 C 
ATOM      3  N   UNL     1     -44.121  29.645 -21.387  1.00  0.00    -0.309 N 
ATOM      4  C   UNL     1     -43.732  30.519 -22.415  1.00  0.00     0.118 C 
ATOM      5  C   UNL     1     -44.639  30.847 -23.342  1.00  0.00     0.080 C 
ATOM      6  C   UNL     1     -44.641  31.670 -24.527  1.00  0.00     0.151 C 
ATOM      7  N   UNL     1     -45.808  31.667 -25.097  1.00  0.00    -0.156 NA
ATOM      8  N   UNL     1     -46.678  30.822 -24.302  1.00  0.00    -0.132 NA
ATOM      9  C   UNL     1     -46.009  30.341 -23.278  1.00  0.00     0.165 C 
ENDROOT
BRANCH   1  10
ATOM     10  C   UNL     1     -47.779  28.839 -22.329  1.00  0.00     0.035 C 
ATOM     11  C   UNL     1     -47.813  27.628 -21.379  1.00  0.00     0.034 C 
ATOM     12  C   UNL     1     -48.091  28.396 -23.773  1.00  0.00     0.034 C 
ATOM     13  C   UNL     1     -48.922  29.796 -21.920  1.00  0.00     0.034 C 
ENDBRANCH   1  10
BRANCH   3  14
ATOM     14  C   UNL     1     -43.183  28.962 -20.558  1.00  0.00     0.044 A 
ATOM     15  C   UNL     1     -42.907  27.603 -20.780  1.00  0.00     0.028 A 
ATOM     16  C   UNL     1     -42.507  29.618 -19.517  1.00  0.00     0.028 A 
ATOM     17  C   UNL     1     -41.982  26.919 -19.986  1.00  0.00     0.022 A 
ATOM     18  C   UNL     1     -41.580  28.938 -18.721  1.00  0.00     0.022 A 
ATOM     19  C   UNL     1     -41.321  27.592 -18.961  1.00  0.00     0.041 A 
ATOM     20  Cl  UNL     1     -40.181  26.752 -17.984  1.00  0.00    -0.084 Cl
ENDBRANCH   3  14
BRANCH   4  21
ATOM     21  N   UNL     1     -42.461  31.076 -22.436  1.00  0.00    -0.384 N 
ATOM     22  H   UNL     1     -41.826  30.522 -21.862  1.00  0.00     0.158 HD
ATOM     23  H   UNL     1     -42.438  32.052 -22.158  1.00  0.00     0.158 HD
ENDBRANCH   4  21
TORSDOF 3
ENDMDL
