MODEL 1
REMARK minimizedAffinity -8.05165195
REMARK CNNscore 0.630688548
REMARK CNNaffinity 6.02146149
REMARK SMILES CC(C)(C)N1CN(c2ccc(Cl)cc2)C(N)=C2C=NN=C21
REMARK SMILES IDX 5 1 6 2 7 3 15 4 17 5 18 6 19 7 20 8 21 9 2 10 1 11 3 12
REMARK SMILES IDX 4 13 8 14 9 15 14 16 10 17 13 18 11 19 12 20 16 21
REMARK H PARENT 16 22 16 23
ROOT
ATOM      1  N   UNL     1     -44.638  16.958   9.940  1.00  0.00    -0.331 N 
ATOM      2  C   UNL     1     -43.771  18.003   9.379  1.00  0.00     0.246 C 
ATOM      3  N   UNL     1     -44.366  19.365   9.369  1.00  0.00    -0.309 N 
ATOM      4  C   UNL     1     -45.756  19.558   9.307  1.00  0.00     0.118 C 
ATOM      5  C   UNL     1     -46.551  18.504   9.518  1.00  0.00     0.080 C 
ATOM      6  C   UNL     1     -47.976  18.281   9.527  1.00  0.00     0.151 C 
ATOM      7  N   UNL     1     -48.254  17.042   9.800  1.00  0.00    -0.156 NA
ATOM      8  N   UNL     1     -46.997  16.347   9.997  1.00  0.00    -0.132 NA
ATOM      9  C   UNL     1     -46.000  17.188   9.838  1.00  0.00     0.165 C 
ENDROOT
BRANCH   1  10
ATOM     10  C   UNL     1     -44.091  15.576  10.067  1.00  0.00     0.035 C 
ATOM     11  C   UNL     1     -44.106  15.135  11.542  1.00  0.00     0.034 C 
ATOM     12  C   UNL     1     -42.656  15.513   9.503  1.00  0.00     0.034 C 
ATOM     13  C   UNL     1     -44.914  14.550   9.257  1.00  0.00     0.034 C 
ENDBRANCH   1  10
BRANCH   3  14
ATOM     14  C   UNL     1     -43.432  20.302   8.838  1.00  0.00     0.044 A 
ATOM     15  C   UNL     1     -42.311  19.848   8.125  1.00  0.00     0.028 A 
ATOM     16  C   UNL     1     -43.604  21.686   8.999  1.00  0.00     0.028 A 
ATOM     17  C   UNL     1     -41.389  20.751   7.585  1.00  0.00     0.022 A 
ATOM     18  C   UNL     1     -42.686  22.592   8.460  1.00  0.00     0.022 A 
ATOM     19  C   UNL     1     -41.583  22.120   7.755  1.00  0.00     0.041 A 
ATOM     20  Cl  UNL     1     -40.451  23.231   7.091  1.00  0.00    -0.084 Cl
ENDBRANCH   3  14
BRANCH   4  21
ATOM     21  N   UNL     1     -46.292  20.821   9.092  1.00  0.00    -0.384 N 
ATOM     22  H   UNL     1     -45.627  21.537   9.379  1.00  0.00     0.158 HD
ATOM     23  H   UNL     1     -47.191  20.964   9.541  1.00  0.00     0.158 HD
ENDBRANCH   4  21
TORSDOF 3
ENDMDL
MODEL 2
REMARK minimizedAffinity -8.00934505
REMARK CNNscore 0.627973318
REMARK CNNaffinity 6.01596069
REMARK SMILES CC(C)(C)N1CN(c2ccc(Cl)cc2)C(N)=C2C=NN=C21
REMARK SMILES IDX 5 1 6 2 7 3 15 4 17 5 18 6 19 7 20 8 21 9 2 10 1 11 3 12
REMARK SMILES IDX 4 13 8 14 9 15 14 16 10 17 13 18 11 19 12 20 16 21
REMARK H PARENT 16 22 16 23
ROOT
ATOM      1  N   UNL     1     -44.649  16.957   9.951  1.00  0.00    -0.331 N 
ATOM      2  C   UNL     1     -43.774  17.987   9.376  1.00  0.00     0.246 C 
ATOM      3  N   UNL     1     -44.353  19.356   9.360  1.00  0.00    -0.309 N 
ATOM      4  C   UNL     1     -45.740  19.565   9.304  1.00  0.00     0.118 C 
ATOM      5  C   UNL     1     -46.547  18.521   9.528  1.00  0.00     0.080 C 
ATOM      6  C   UNL     1     -47.974  18.315   9.548  1.00  0.00     0.151 C 
ATOM      7  N   UNL     1     -48.265  17.082   9.832  1.00  0.00    -0.156 NA
ATOM      8  N   UNL     1     -47.015  16.374  10.027  1.00  0.00    -0.132 NA
ATOM      9  C   UNL     1     -46.009  17.202   9.855  1.00  0.00     0.165 C 
ENDROOT
BRANCH   1  10
ATOM     10  C   UNL     1     -44.118  15.569  10.085  1.00  0.00     0.035 C 
ATOM     11  C   UNL     1     -44.108  15.148  11.566  1.00  0.00     0.034 C 
ATOM     12  C   UNL     1     -42.696  15.479   9.493  1.00  0.00     0.034 C 
ATOM     13  C   UNL     1     -44.971  14.543   9.306  1.00  0.00     0.034 C 
ENDBRANCH   1  10
BRANCH   3  14
ATOM     14  C   UNL     1     -43.410  20.277   8.816  1.00  0.00     0.044 A 
ATOM     15  C   UNL     1     -43.566  21.655   9.038  1.00  0.00     0.028 A 
ATOM     16  C   UNL     1     -42.309  19.844   8.060  1.00  0.00     0.028 A 
ATOM     17  C   UNL     1     -42.646  22.574   8.524  1.00  0.00     0.022 A 
ATOM     18  C   UNL     1     -41.387  20.760   7.545  1.00  0.00     0.022 A 
ATOM     19  C   UNL     1     -41.560  22.120   7.780  1.00  0.00     0.041 A 
ATOM     20  Cl  UNL     1     -40.427  23.249   7.147  1.00  0.00    -0.084 Cl
ENDBRANCH   3  14
BRANCH   4  21
ATOM     21  N   UNL     1     -46.262  20.832   9.083  1.00  0.00    -0.384 N 
ATOM     22  H   UNL     1     -45.588  21.543   9.360  1.00  0.00     0.158 HD
ATOM     23  H   UNL     1     -47.157  20.990   9.536  1.00  0.00     0.158 HD
ENDBRANCH   4  21
TORSDOF 3
ENDMDL
MODEL 3
REMARK minimizedAffinity -6.8162837
REMARK CNNscore 0.593401313
REMARK CNNaffinity 5.28453588
REMARK SMILES CC(C)(C)N1CN(c2ccc(Cl)cc2)C(N)=C2C=NN=C21
REMARK SMILES IDX 5 1 6 2 7 3 15 4 17 5 18 6 19 7 20 8 21 9 2 10 1 11 3 12
REMARK SMILES IDX 4 13 8 14 9 15 14 16 10 17 13 18 11 19 12 20 16 21
REMARK H PARENT 16 22 16 23
ROOT
ATOM      1  N   UNL     1     -43.917  31.293 -22.290  1.00  0.00    -0.331 N 
ATOM      2  C   UNL     1     -43.056  30.578 -21.340  1.00  0.00     0.246 C 
ATOM      3  N   UNL     1     -43.496  29.193 -21.023  1.00  0.00    -0.309 N 
ATOM      4  C   UNL     1     -44.847  28.818 -21.099  1.00  0.00     0.118 C 
ATOM      5  C   UNL     1     -45.700  29.647 -21.711  1.00  0.00     0.080 C 
ATOM      6  C   UNL     1     -47.118  29.643 -21.979  1.00  0.00     0.151 C 
ATOM      7  N   UNL     1     -47.473  30.709 -22.630  1.00  0.00    -0.156 NA
ATOM      8  N   UNL     1     -46.281  31.507 -22.843  1.00  0.00    -0.132 NA
ATOM      9  C   UNL     1     -45.244  30.897 -22.314  1.00  0.00     0.165 C 
ENDROOT
BRANCH   1  10
ATOM     10  C   UNL     1     -43.506  32.658 -22.731  1.00  0.00     0.035 C 
ATOM     11  C   UNL     1     -43.355  32.695 -24.263  1.00  0.00     0.034 C 
ATOM     12  C   UNL     1     -42.181  33.064 -22.053  1.00  0.00     0.034 C 
ATOM     13  C   UNL     1     -44.539  33.734 -22.329  1.00  0.00     0.034 C 
ENDBRANCH   1  10
BRANCH   3  14
ATOM     14  C   UNL     1     -42.574  28.583 -20.122  1.00  0.00     0.044 A 
ATOM     15  C   UNL     1     -42.119  27.276 -20.362  1.00  0.00     0.028 A 
ATOM     16  C   UNL     1     -42.092  29.260 -18.991  1.00  0.00     0.028 A 
ATOM     17  C   UNL     1     -41.206  26.664 -19.497  1.00  0.00     0.022 A 
ATOM     18  C   UNL     1     -41.178  28.652 -18.125  1.00  0.00     0.022 A 
ATOM     19  C   UNL     1     -40.739  27.357 -18.383  1.00  0.00     0.041 A 
ATOM     20  Cl  UNL     1     -39.615  26.606 -17.320  1.00  0.00    -0.084 Cl
ENDBRANCH   3  14
BRANCH   4  21
ATOM     21  N   UNL     1     -45.276  27.592 -20.608  1.00  0.00    -0.384 N 
ATOM     22  H   UNL     1     -44.499  26.933 -20.583  1.00  0.00     0.158 HD
ATOM     23  H   UNL     1     -46.063  27.202 -21.116  1.00  0.00     0.158 HD
ENDBRANCH   4  21
TORSDOF 3
ENDMDL
MODEL 4
REMARK minimizedAffinity -7.29362249
REMARK CNNscore 0.53129375
REMARK CNNaffinity 5.79075575
REMARK SMILES CC(C)(C)N1CN(c2ccc(Cl)cc2)C(N)=C2C=NN=C21
REMARK SMILES IDX 5 1 6 2 7 3 15 4 17 5 18 6 19 7 20 8 21 9 2 10 1 11 3 12
REMARK SMILES IDX 4 13 8 14 9 15 14 16 10 17 13 18 11 19 12 20 16 21
REMARK H PARENT 16 22 16 23
ROOT
ATOM      1  N   UNL     1     -46.454  18.721   9.614  1.00  0.00    -0.331 N 
ATOM      2  C   UNL     1     -45.458  19.727   9.223  1.00  0.00     0.246 C 
ATOM      3  N   UNL     1     -44.127  19.175   8.859  1.00  0.00    -0.309 N 
ATOM      4  C   UNL     1     -43.663  17.963   9.397  1.00  0.00     0.118 C 
ATOM      5  C   UNL     1     -44.537  17.181  10.039  1.00  0.00     0.080 C 
ATOM      6  C   UNL     1     -44.467  15.913  10.724  1.00  0.00     0.151 C 
ATOM      7  N   UNL     1     -45.630  15.566  11.187  1.00  0.00    -0.156 NA
ATOM      8  N   UNL     1     -46.571  16.609  10.825  1.00  0.00    -0.132 NA
ATOM      9  C   UNL     1     -45.946  17.552  10.156  1.00  0.00     0.165 C 
ENDROOT
BRANCH   1  10
ATOM     10  C   UNL     1     -47.842  19.177   9.915  1.00  0.00     0.035 C 
ATOM     11  C   UNL     1     -48.178  20.430   9.087  1.00  0.00     0.034 C 
ATOM     12  C   UNL     1     -47.994  19.474  11.422  1.00  0.00     0.034 C 
ATOM     13  C   UNL     1     -48.893  18.094   9.585  1.00  0.00     0.034 C 
ENDBRANCH   1  10
BRANCH   3  14
ATOM     14  C   UNL     1     -43.252  20.229   8.465  1.00  0.00     0.044 A 
ATOM     15  C   UNL     1     -42.050  19.935   7.800  1.00  0.00     0.028 A 
ATOM     16  C   UNL     1     -43.563  21.576   8.714  1.00  0.00     0.028 A 
ATOM     17  C   UNL     1     -41.185  20.956   7.395  1.00  0.00     0.022 A 
ATOM     18  C   UNL     1     -42.701  22.599   8.310  1.00  0.00     0.022 A 
ATOM     19  C   UNL     1     -41.517  22.284   7.651  1.00  0.00     0.041 A 
ATOM     20  Cl  UNL     1     -40.454  23.541   7.152  1.00  0.00    -0.084 Cl
ENDBRANCH   3  14
BRANCH   4  21
ATOM     21  N   UNL     1     -42.347  17.559   9.215  1.00  0.00    -0.384 N 
ATOM     22  H   UNL     1     -41.954  18.005   8.388  1.00  0.00     0.158 HD
ATOM     23  H   UNL     1     -42.233  16.551   9.169  1.00  0.00     0.158 HD
ENDBRANCH   4  21
TORSDOF 3
ENDMDL
MODEL 5
REMARK minimizedAffinity -9.0378437
REMARK CNNscore 0.500647783
REMARK CNNaffinity 6.40725851
REMARK SMILES CC(C)(C)N1CN(c2ccc(Cl)cc2)C(N)=C2C=NN=C21
REMARK SMILES IDX 5 1 6 2 7 3 15 4 17 5 18 6 19 7 20 8 21 9 2 10 1 11 3 12
REMARK SMILES IDX 4 13 8 14 9 15 14 16 10 17 13 18 11 19 12 20 16 21
REMARK H PARENT 16 22 16 23
ROOT
ATOM      1  N   UNL     1     -45.600  20.715 -21.052  1.00  0.00    -0.331 N 
ATOM      2  C   UNL     1     -45.602  19.643 -20.047  1.00  0.00     0.246 C 
ATOM      3  N   UNL     1     -46.918  19.404 -19.397  1.00  0.00    -0.309 N 
ATOM      4  C   UNL     1     -47.870  20.428 -19.271  1.00  0.00     0.118 C 
ATOM      5  C   UNL     1     -47.687  21.553 -19.971  1.00  0.00     0.080 C 
ATOM      6  C   UNL     1     -48.395  22.803 -20.107  1.00  0.00     0.151 C 
ATOM      7  N   UNL     1     -47.792  23.594 -20.942  1.00  0.00    -0.156 NA
ATOM      8  N   UNL     1     -46.616  22.898 -21.428  1.00  0.00    -0.132 NA
ATOM      9  C   UNL     1     -46.546  21.709 -20.872  1.00  0.00     0.165 C 
ENDROOT
BRANCH   1  10
ATOM     10  C   UNL     1     -44.343  20.968 -21.815  1.00  0.00     0.035 C 
ATOM     11  C   UNL     1     -43.922  19.698 -22.576  1.00  0.00     0.034 C 
ATOM     12  C   UNL     1     -43.218  21.419 -20.861  1.00  0.00     0.034 C 
ATOM     13  C   UNL     1     -44.510  22.106 -22.847  1.00  0.00     0.034 C 
ENDBRANCH   1  10
BRANCH   3  14
ATOM     14  C   UNL     1     -46.815  18.326 -18.469  1.00  0.00     0.044 A 
ATOM     15  C   UNL     1     -47.941  17.921 -17.735  1.00  0.00     0.028 A 
ATOM     16  C   UNL     1     -45.606  17.639 -18.270  1.00  0.00     0.028 A 
ATOM     17  C   UNL     1     -47.864  16.858 -16.830  1.00  0.00     0.022 A 
ATOM     18  C   UNL     1     -45.525  16.576 -17.366  1.00  0.00     0.022 A 
ATOM     19  C   UNL     1     -46.655  16.190 -16.651  1.00  0.00     0.041 A 
ATOM     20  Cl  UNL     1     -46.558  14.882 -15.538  1.00  0.00    -0.084 Cl
ENDBRANCH   3  14
BRANCH   4  21
ATOM     21  N   UNL     1     -49.003  20.256 -18.487  1.00  0.00    -0.384 N 
ATOM     22  H   UNL     1     -49.213  19.264 -18.387  1.00  0.00     0.158 HD
ATOM     23  H   UNL     1     -49.815  20.763 -18.826  1.00  0.00     0.158 HD
ENDBRANCH   4  21
TORSDOF 3
ENDMDL
MODEL 6
REMARK minimizedAffinity -6.83384705
REMARK CNNscore 0.451453209
REMARK CNNaffinity 5.30290174
REMARK SMILES CC(C)(C)N1CN(c2ccc(Cl)cc2)C(N)=C2C=NN=C21
REMARK SMILES IDX 5 1 6 2 7 3 15 4 17 5 18 6 19 7 20 8 21 9 2 10 1 11 3 12
REMARK SMILES IDX 4 13 8 14 9 15 14 16 10 17 13 18 11 19 12 20 16 21
REMARK H PARENT 16 22 16 23
ROOT
ATOM      1  N   UNL     1     -48.156  19.554   9.621  1.00  0.00    -0.331 N 
ATOM      2  C   UNL     1     -46.849  20.109   9.247  1.00  0.00     0.246 C 
ATOM      3  N   UNL     1     -45.692  19.215   9.521  1.00  0.00    -0.309 N 
ATOM      4  C   UNL     1     -45.732  18.258  10.548  1.00  0.00     0.118 C 
ATOM      5  C   UNL     1     -46.914  17.981  11.109  1.00  0.00     0.080 C 
ATOM      6  C   UNL     1     -47.369  17.108  12.164  1.00  0.00     0.151 C 
ATOM      7  N   UNL     1     -48.653  17.204  12.330  1.00  0.00    -0.156 NA
ATOM      8  N   UNL     1     -49.145  18.171  11.368  1.00  0.00    -0.132 NA
ATOM      9  C   UNL     1     -48.142  18.628  10.651  1.00  0.00     0.165 C 
ENDROOT
BRANCH   1  10
ATOM     10  C   UNL     1     -49.380  20.346   9.306  1.00  0.00     0.035 C 
ATOM     11  C   UNL     1     -50.211  20.567  10.582  1.00  0.00     0.034 C 
ATOM     12  C   UNL     1     -50.225  19.624   8.235  1.00  0.00     0.034 C 
ATOM     13  C   UNL     1     -49.038  21.732   8.716  1.00  0.00     0.034 C 
ENDBRANCH   1  10
BRANCH   3  14
ATOM     14  C   UNL     1     -44.483  19.836   9.090  1.00  0.00     0.044 A 
ATOM     15  C   UNL     1     -44.283  21.209   9.307  1.00  0.00     0.028 A 
ATOM     16  C   UNL     1     -43.466  19.105   8.455  1.00  0.00     0.028 A 
ATOM     17  C   UNL     1     -43.099  21.834   8.903  1.00  0.00     0.022 A 
ATOM     18  C   UNL     1     -42.281  19.727   8.050  1.00  0.00     0.022 A 
ATOM     19  C   UNL     1     -42.103  21.088   8.278  1.00  0.00     0.041 A 
ATOM     20  Cl  UNL     1     -40.646  21.855   7.781  1.00  0.00    -0.084 Cl
ENDBRANCH   3  14
BRANCH   4  21
ATOM     21  N   UNL     1     -44.586  17.574  10.930  1.00  0.00    -0.384 N 
ATOM     22  H   UNL     1     -43.911  17.567  10.167  1.00  0.00     0.158 HD
ATOM     23  H   UNL     1     -44.765  16.631  11.261  1.00  0.00     0.158 HD
ENDBRANCH   4  21
TORSDOF 3
ENDMDL
MODEL 7
REMARK minimizedAffinity -4.67718172
REMARK CNNscore 0.366437793
REMARK CNNaffinity 4.40353727
REMARK SMILES CC(C)(C)N1CN(c2ccc(Cl)cc2)C(N)=C2C=NN=C21
REMARK SMILES IDX 5 1 6 2 7 3 15 4 17 5 18 6 19 7 20 8 21 9 2 10 1 11 3 12
REMARK SMILES IDX 4 13 8 14 9 15 14 16 10 17 13 18 11 19 12 20 16 21
REMARK H PARENT 16 22 16 23
ROOT
ATOM      1  N   UNL     1     -40.515  28.319 -36.372  1.00  0.00    -0.331 N 
ATOM      2  C   UNL     1     -41.138  29.456 -35.683  1.00  0.00     0.246 C 
ATOM      3  N   UNL     1     -40.579  29.749 -34.336  1.00  0.00    -0.309 N 
ATOM      4  C   UNL     1     -39.994  28.743 -33.551  1.00  0.00     0.118 C 
ATOM      5  C   UNL     1     -39.710  27.571 -34.132  1.00  0.00     0.080 C 
ATOM      6  C   UNL     1     -39.142  26.320 -33.692  1.00  0.00     0.151 C 
ATOM      7  N   UNL     1     -39.068  25.470 -34.671  1.00  0.00    -0.156 NA
ATOM      8  N   UNL     1     -39.594  26.123 -35.854  1.00  0.00    -0.132 NA
ATOM      9  C   UNL     1     -39.968  27.346 -35.553  1.00  0.00     0.165 C 
ENDROOT
BRANCH   1  10
ATOM     10  C   UNL     1     -40.955  28.005 -37.763  1.00  0.00     0.035 C 
ATOM     11  C   UNL     1     -42.039  26.913 -37.741  1.00  0.00     0.034 C 
ATOM     12  C   UNL     1     -39.752  27.549 -38.615  1.00  0.00     0.034 C 
ATOM     13  C   UNL     1     -41.541  29.242 -38.480  1.00  0.00     0.034 C 
ENDBRANCH   1  10
BRANCH   3  14
ATOM     14  C   UNL     1     -41.230  30.886 -33.775  1.00  0.00     0.044 A 
ATOM     15  C   UNL     1     -40.849  31.359 -32.509  1.00  0.00     0.028 A 
ATOM     16  C   UNL     1     -42.248  31.566 -34.462  1.00  0.00     0.028 A 
ATOM     17  C   UNL     1     -41.466  32.481 -31.946  1.00  0.00     0.022 A 
ATOM     18  C   UNL     1     -42.867  32.688 -33.903  1.00  0.00     0.022 A 
ATOM     19  C   UNL     1     -42.472  33.140 -32.648  1.00  0.00     0.041 A 
ATOM     20  Cl  UNL     1     -43.232  34.521 -31.957  1.00  0.00    -0.084 Cl
ENDBRANCH   3  14
BRANCH   4  21
ATOM     21  N   UNL     1     -39.663  28.976 -32.223  1.00  0.00    -0.384 N 
ATOM     22  H   UNL     1     -39.533  29.974 -32.064  1.00  0.00     0.158 HD
ATOM     23  H   UNL     1     -38.852  28.453 -31.907  1.00  0.00     0.158 HD
ENDBRANCH   4  21
TORSDOF 3
ENDMDL
MODEL 8
REMARK minimizedAffinity -5.12163353
REMARK CNNscore 0.178789169
REMARK CNNaffinity 3.84245133
REMARK SMILES CC(C)(C)N1CN(c2ccc(Cl)cc2)C(N)=C2C=NN=C21
REMARK SMILES IDX 5 1 6 2 7 3 15 4 17 5 18 6 19 7 20 8 21 9 2 10 1 11 3 12
REMARK SMILES IDX 4 13 8 14 9 15 14 16 10 17 13 18 11 19 12 20 16 21
REMARK H PARENT 16 22 16 23
ROOT
ATOM      1  N   UNL     1     -48.361   8.395  -5.360  1.00  0.00    -0.331 N 
ATOM      2  C   UNL     1     -48.743   9.590  -6.123  1.00  0.00     0.246 C 
ATOM      3  N   UNL     1     -49.190   9.322  -7.516  1.00  0.00    -0.309 N 
ATOM      4  C   UNL     1     -48.732   8.203  -8.230  1.00  0.00     0.118 C 
ATOM      5  C   UNL     1     -48.093   7.240  -7.556  1.00  0.00     0.080 C 
ATOM      6  C   UNL     1     -47.474   5.984  -7.903  1.00  0.00     0.151 C 
ATOM      7  N   UNL     1     -46.980   5.400  -6.854  1.00  0.00    -0.156 NA
ATOM      8  N   UNL     1     -47.251   6.254  -5.713  1.00  0.00    -0.132 NA
ATOM      9  C   UNL     1     -47.899   7.326  -6.110  1.00  0.00     0.165 C 
ENDROOT
BRANCH   1  10
ATOM     10  C   UNL     1     -47.980   8.560  -3.927  1.00  0.00     0.035 C 
ATOM     11  C   UNL     1     -48.307   9.988  -3.455  1.00  0.00     0.034 C 
ATOM     12  C   UNL     1     -46.478   8.263  -3.734  1.00  0.00     0.034 C 
ATOM     13  C   UNL     1     -48.732   7.572  -3.009  1.00  0.00     0.034 C 
ENDBRANCH   1  10
BRANCH   3  14
ATOM     14  C   UNL     1     -49.568  10.541  -8.150  1.00  0.00     0.044 A 
ATOM     15  C   UNL     1     -49.943  11.650  -7.374  1.00  0.00     0.028 A 
ATOM     16  C   UNL     1     -49.569  10.675  -9.548  1.00  0.00     0.028 A 
ATOM     17  C   UNL     1     -50.305  12.859  -7.977  1.00  0.00     0.022 A 
ATOM     18  C   UNL     1     -49.930  11.882 -10.154  1.00  0.00     0.022 A 
ATOM     19  C   UNL     1     -50.295  12.968  -9.365  1.00  0.00     0.041 A 
ATOM     20  Cl  UNL     1     -50.739  14.455 -10.108  1.00  0.00    -0.084 Cl
ENDBRANCH   3  14
BRANCH   4  21
ATOM     21  N   UNL     1     -48.989   8.070  -9.588  1.00  0.00    -0.384 N 
ATOM     22  H   UNL     1     -49.809   8.616  -9.845  1.00  0.00     0.158 HD
ATOM     23  H   UNL     1     -49.089   7.106  -9.892  1.00  0.00     0.158 HD
ENDBRANCH   4  21
TORSDOF 3
ENDMDL
MODEL 9
REMARK minimizedAffinity -6.57327223
REMARK CNNscore 0.172848105
REMARK CNNaffinity 5.03448868
REMARK SMILES CC(C)(C)N1CN(c2ccc(Cl)cc2)C(N)=C2C=NN=C21
REMARK SMILES IDX 5 1 6 2 7 3 15 4 17 5 18 6 19 7 20 8 21 9 2 10 1 11 3 12
REMARK SMILES IDX 4 13 8 14 9 15 14 16 10 17 13 18 11 19 12 20 16 21
REMARK H PARENT 16 22 16 23
ROOT
ATOM      1  N   UNL     1     -43.970  19.616   8.908  1.00  0.00    -0.331 N 
ATOM      2  C   UNL     1     -45.403  19.854   9.122  1.00  0.00     0.246 C 
ATOM      3  N   UNL     1     -46.099  18.798   9.903  1.00  0.00    -0.309 N 
ATOM      4  C   UNL     1     -45.645  17.469   9.907  1.00  0.00     0.118 C 
ATOM      5  C   UNL     1     -44.429  17.215   9.409  1.00  0.00     0.080 C 
ATOM      6  C   UNL     1     -43.626  16.031   9.219  1.00  0.00     0.151 C 
ATOM      7  N   UNL     1     -42.480  16.324   8.684  1.00  0.00    -0.156 NA
ATOM      8  N   UNL     1     -42.448  17.760   8.482  1.00  0.00    -0.132 NA
ATOM      9  C   UNL     1     -43.576  18.288   8.902  1.00  0.00     0.165 C 
ENDROOT
BRANCH   1  10
ATOM     10  C   UNL     1     -43.174  20.665   8.207  1.00  0.00     0.035 C 
ATOM     11  C   UNL     1     -41.678  20.305   8.243  1.00  0.00     0.034 C 
ATOM     12  C   UNL     1     -43.409  22.043   8.860  1.00  0.00     0.034 C 
ATOM     13  C   UNL     1     -43.590  20.818   6.727  1.00  0.00     0.034 C 
ENDBRANCH   1  10
BRANCH   3  14
ATOM     14  C   UNL     1     -47.470  19.145  10.080  1.00  0.00     0.044 A 
ATOM     15  C   UNL     1     -48.009  19.242  11.373  1.00  0.00     0.028 A 
ATOM     16  C   UNL     1     -48.310  19.408   8.986  1.00  0.00     0.028 A 
ATOM     17  C   UNL     1     -49.349  19.593  11.568  1.00  0.00     0.022 A 
ATOM     18  C   UNL     1     -49.650  19.761   9.177  1.00  0.00     0.022 A 
ATOM     19  C   UNL     1     -50.162  19.852  10.468  1.00  0.00     0.041 A 
ATOM     20  Cl  UNL     1     -51.809  20.286  10.706  1.00  0.00    -0.084 Cl
ENDBRANCH   3  14
BRANCH   4  21
ATOM     21  N   UNL     1     -46.410  16.455  10.466  1.00  0.00    -0.384 N 
ATOM     22  H   UNL     1     -47.054  16.841  11.154  1.00  0.00     0.158 HD
ATOM     23  H   UNL     1     -45.859  15.704  10.871  1.00  0.00     0.158 HD
ENDBRANCH   4  21
TORSDOF 3
ENDMDL
