MODEL 1
REMARK minimizedAffinity -11.9384813
REMARK CNNscore 0.98882848
REMARK CNNaffinity 7.27026129
REMARK SMILES CC(=O)Nc1cc2ccc(-c3cc(F)ccc3C)cc2cn1
REMARK SMILES IDX 5 1 6 2 7 3 8 4 9 5 10 6 19 7 20 8 21 9 22 10 4 11 2 12 3 13
REMARK SMILES IDX 1 14 11 16 12 17 17 18 13 19 16 20 15 21 18 22 14 23
REMARK H PARENT 4 15
ROOT
ATOM      1  C   UNL     1     -47.126  14.692 -15.753  1.00  0.00     0.133 A 
ATOM      2  C   UNL     1     -47.863  15.793 -16.168  1.00  0.00     0.056 A 
ATOM      3  C   UNL     1     -47.239  16.783 -16.942  1.00  0.00    -0.013 A 
ATOM      4  C   UNL     1     -47.931  17.918 -17.390  1.00  0.00     0.009 A 
ATOM      5  C   UNL     1     -47.283  18.890 -18.159  1.00  0.00     0.009 A 
ATOM      6  C   UNL     1     -45.931  18.755 -18.496  1.00  0.00    -0.017 A 
ATOM      7  C   UNL     1     -45.239  17.619 -18.052  1.00  0.00     0.019 A 
ATOM      8  C   UNL     1     -45.883  16.635 -17.277  1.00  0.00     0.001 A 
ATOM      9  C   UNL     1     -45.236  15.492 -16.812  1.00  0.00     0.122 A 
ATOM     10  N   UNL     1     -45.824  14.527 -16.064  1.00  0.00    -0.238 NA
ENDROOT
BRANCH   1  11
ATOM     11  N   UNL     1     -47.638  13.646 -14.984  1.00  0.00    -0.311 N 
ATOM     12  C   UNL     1     -48.929  13.181 -14.927  1.00  0.00     0.222 C 
ATOM     13  O   UNL     1     -49.893  13.621 -15.543  1.00  0.00    -0.275 OA
ATOM     14  C   UNL     1     -49.092  12.030 -13.965  1.00  0.00     0.114 C 
ATOM     15  H   UNL     1     -46.926  13.219 -14.410  1.00  0.00     0.171 HD
ENDBRANCH   1  11
BRANCH   6  16
ATOM     16  C   UNL     1     -45.253  19.775 -19.306  1.00  0.00    -0.013 A 
ATOM     17  C   UNL     1     -44.740  20.918 -18.670  1.00  0.00     0.048 A 
ATOM     18  C   UNL     1     -45.102  19.647 -20.707  1.00  0.00    -0.043 A 
ATOM     19  C   UNL     1     -44.093  21.903 -19.408  1.00  0.00     0.123 A 
ATOM     20  C   UNL     1     -44.440  20.656 -21.430  1.00  0.00     0.007 A 
ATOM     21  C   UNL     1     -43.939  21.782 -20.780  1.00  0.00     0.039 A 
ATOM     22  C   UNL     1     -45.628  18.444 -21.447  1.00  0.00     0.045 C 
ATOM     23  F   UNL     1     -43.610  22.985 -18.782  1.00  0.00    -0.207 F 
ENDBRANCH   6  16
TORSDOF 2
ENDMDL
MODEL 2
REMARK minimizedAffinity -11.5805883
REMARK CNNscore 0.980639279
REMARK CNNaffinity 7.27122736
REMARK SMILES CC(=O)Nc1cc2ccc(-c3cc(F)ccc3C)cc2cn1
REMARK SMILES IDX 5 1 6 2 7 3 8 4 9 5 10 6 19 7 20 8 21 9 22 10 4 11 2 12 3 13
REMARK SMILES IDX 1 14 11 16 12 17 17 18 13 19 16 20 15 21 18 22 14 23
REMARK H PARENT 4 15
ROOT
ATOM      1  C   UNL     1     -47.423  15.194 -15.636  1.00  0.00     0.133 A 
ATOM      2  C   UNL     1     -48.055  16.323 -16.137  1.00  0.00     0.056 A 
ATOM      3  C   UNL     1     -47.379  17.134 -17.063  1.00  0.00    -0.013 A 
ATOM      4  C   UNL     1     -47.967  18.288 -17.604  1.00  0.00     0.009 A 
ATOM      5  C   UNL     1     -47.269  19.077 -18.524  1.00  0.00     0.009 A 
ATOM      6  C   UNL     1     -45.971  18.736 -18.923  1.00  0.00    -0.017 A 
ATOM      7  C   UNL     1     -45.385  17.581 -18.386  1.00  0.00     0.019 A 
ATOM      8  C   UNL     1     -46.079  16.780 -17.459  1.00  0.00     0.001 A 
ATOM      9  C   UNL     1     -45.537  15.626 -16.898  1.00  0.00     0.122 A 
ATOM     10  N   UNL     1     -46.175  14.833 -16.003  1.00  0.00    -0.238 NA
ENDROOT
BRANCH   1  11
ATOM     11  N   UNL     1     -47.994  14.315 -14.715  1.00  0.00    -0.311 N 
ATOM     12  C   UNL     1     -49.194  13.654 -14.798  1.00  0.00     0.222 C 
ATOM     13  O   UNL     1     -50.011  13.730 -15.710  1.00  0.00    -0.275 OA
ATOM     14  C   UNL     1     -49.469  12.790 -13.591  1.00  0.00     0.114 C 
ATOM     15  H   UNL     1     -47.410  14.194 -13.900  1.00  0.00     0.171 HD
ENDBRANCH   1  11
BRANCH   6  16
ATOM     16  C   UNL     1     -45.242  19.565 -19.891  1.00  0.00    -0.013 A 
ATOM     17  C   UNL     1     -45.362  19.276 -21.261  1.00  0.00     0.048 A 
ATOM     18  C   UNL     1     -44.419  20.645 -19.491  1.00  0.00    -0.043 A 
ATOM     19  C   UNL     1     -44.685  20.041 -22.204  1.00  0.00     0.123 A 
ATOM     20  C   UNL     1     -43.747  21.405 -20.464  1.00  0.00     0.007 A 
ATOM     21  C   UNL     1     -43.879  21.102 -21.818  1.00  0.00     0.039 A 
ATOM     22  C   UNL     1     -44.251  21.006 -18.037  1.00  0.00     0.045 C 
ATOM     23  F   UNL     1     -44.813  19.749 -23.505  1.00  0.00    -0.207 F 
ENDBRANCH   6  16
TORSDOF 2
ENDMDL
MODEL 3
REMARK minimizedAffinity -10.2810106
REMARK CNNscore 0.73593694
REMARK CNNaffinity 6.58793259
REMARK SMILES CC(=O)Nc1cc2ccc(-c3cc(F)ccc3C)cc2cn1
REMARK SMILES IDX 5 1 6 2 7 3 8 4 9 5 10 6 19 7 20 8 21 9 22 10 4 11 2 12 3 13
REMARK SMILES IDX 1 14 11 16 12 17 17 18 13 19 16 20 15 21 18 22 14 23
REMARK H PARENT 4 15
ROOT
ATOM      1  C   UNL     1     -47.447  13.951 -15.081  1.00  0.00     0.133 A 
ATOM      2  C   UNL     1     -46.237  14.364 -15.622  1.00  0.00     0.056 A 
ATOM      3  C   UNL     1     -46.215  15.469 -16.487  1.00  0.00    -0.013 A 
ATOM      4  C   UNL     1     -45.024  15.933 -17.065  1.00  0.00     0.009 A 
ATOM      5  C   UNL     1     -45.031  17.036 -17.924  1.00  0.00     0.009 A 
ATOM      6  C   UNL     1     -46.226  17.701 -18.229  1.00  0.00    -0.017 A 
ATOM      7  C   UNL     1     -47.416  17.241 -17.647  1.00  0.00     0.019 A 
ATOM      8  C   UNL     1     -47.419  16.130 -16.782  1.00  0.00     0.001 A 
ATOM      9  C   UNL     1     -48.576  15.637 -16.183  1.00  0.00     0.122 A 
ATOM     10  N   UNL     1     -48.615  14.571 -15.348  1.00  0.00    -0.238 NA
ENDROOT
BRANCH   1  11
ATOM     11  N   UNL     1     -47.592  12.870 -14.210  1.00  0.00    -0.311 N 
ATOM     12  C   UNL     1     -48.661  12.020 -14.077  1.00  0.00     0.222 C 
ATOM     13  O   UNL     1     -49.716  12.067 -14.701  1.00  0.00    -0.275 OA
ATOM     14  C   UNL     1     -48.443  10.969 -13.016  1.00  0.00     0.114 C 
ATOM     15  H   UNL     1     -46.780  12.750 -13.622  1.00  0.00     0.171 HD
ENDBRANCH   1  11
BRANCH   6  16
ATOM     16  C   UNL     1     -46.231  18.861 -19.128  1.00  0.00    -0.013 A 
ATOM     17  C   UNL     1     -45.140  19.058 -19.991  1.00  0.00     0.048 A 
ATOM     18  C   UNL     1     -47.299  19.790 -19.154  1.00  0.00    -0.043 A 
ATOM     19  C   UNL     1     -45.114  20.147 -20.856  1.00  0.00     0.123 A 
ATOM     20  C   UNL     1     -47.250  20.881 -20.040  1.00  0.00     0.007 A 
ATOM     21  C   UNL     1     -46.158  21.059 -20.888  1.00  0.00     0.039 A 
ATOM     22  C   UNL     1     -48.498  19.633 -18.254  1.00  0.00     0.045 C 
ATOM     23  F   UNL     1     -44.065  20.316 -21.671  1.00  0.00    -0.207 F 
ENDBRANCH   6  16
TORSDOF 2
ENDMDL
MODEL 4
REMARK minimizedAffinity -7.84466648
REMARK CNNscore 0.673879385
REMARK CNNaffinity 5.43690634
REMARK SMILES CC(=O)Nc1cc2ccc(-c3cc(F)ccc3C)cc2cn1
REMARK SMILES IDX 5 1 6 2 7 3 8 4 9 5 10 6 19 7 20 8 21 9 22 10 4 11 2 12 3 13
REMARK SMILES IDX 1 14 11 16 12 17 17 18 13 19 16 20 15 21 18 22 14 23
REMARK H PARENT 4 15
ROOT
ATOM      1  C   UNL     1     -46.371  30.154 -23.503  1.00  0.00     0.133 A 
ATOM      2  C   UNL     1     -45.043  30.523 -23.341  1.00  0.00     0.056 A 
ATOM      3  C   UNL     1     -44.282  29.918 -22.329  1.00  0.00    -0.013 A 
ATOM      4  C   UNL     1     -42.935  30.249 -22.116  1.00  0.00     0.009 A 
ATOM      5  C   UNL     1     -42.201  29.630 -21.099  1.00  0.00     0.009 A 
ATOM      6  C   UNL     1     -42.793  28.670 -20.270  1.00  0.00    -0.017 A 
ATOM      7  C   UNL     1     -44.138  28.334 -20.485  1.00  0.00     0.019 A 
ATOM      8  C   UNL     1     -44.885  28.952 -21.506  1.00  0.00     0.001 A 
ATOM      9  C   UNL     1     -46.223  28.653 -21.755  1.00  0.00     0.122 A 
ATOM     10  N   UNL     1     -46.972  29.228 -22.726  1.00  0.00    -0.238 NA
ENDROOT
BRANCH   1  11
ATOM     11  N   UNL     1     -47.223  30.685 -24.473  1.00  0.00    -0.311 N 
ATOM     12  C   UNL     1     -47.019  30.783 -25.827  1.00  0.00     0.222 C 
ATOM     13  O   UNL     1     -46.019  30.430 -26.444  1.00  0.00    -0.275 OA
ATOM     14  C   UNL     1     -48.178  31.426 -26.547  1.00  0.00     0.114 C 
ATOM     15  H   UNL     1     -48.081  31.033 -24.069  1.00  0.00     0.171 HD
ENDBRANCH   1  11
BRANCH   6  16
ATOM     16  C   UNL     1     -42.020  28.019 -19.205  1.00  0.00    -0.013 A 
ATOM     17  C   UNL     1     -41.369  28.818 -18.251  1.00  0.00     0.048 A 
ATOM     18  C   UNL     1     -41.906  26.611 -19.108  1.00  0.00    -0.043 A 
ATOM     19  C   UNL     1     -40.629  28.234 -17.229  1.00  0.00     0.123 A 
ATOM     20  C   UNL     1     -41.154  26.045 -18.064  1.00  0.00     0.007 A 
ATOM     21  C   UNL     1     -40.516  26.856 -17.128  1.00  0.00     0.039 A 
ATOM     22  C   UNL     1     -42.582  25.699 -20.100  1.00  0.00     0.045 C 
ATOM     23  F   UNL     1     -40.017  29.014 -16.329  1.00  0.00    -0.207 F 
ENDBRANCH   6  16
TORSDOF 2
ENDMDL
MODEL 5
REMARK minimizedAffinity -10.1262131
REMARK CNNscore 0.527216852
REMARK CNNaffinity 6.25034904
REMARK SMILES CC(=O)Nc1cc2ccc(-c3cc(F)ccc3C)cc2cn1
REMARK SMILES IDX 5 1 6 2 7 3 8 4 9 5 10 6 19 7 20 8 21 9 22 10 4 11 2 12 3 13
REMARK SMILES IDX 1 14 11 16 12 17 17 18 13 19 16 20 15 21 18 22 14 23
REMARK H PARENT 4 15
ROOT
ATOM      1  C   UNL     1     -43.611  23.734 -20.148  1.00  0.00     0.133 A 
ATOM      2  C   UNL     1     -44.046  22.646 -20.892  1.00  0.00     0.056 A 
ATOM      3  C   UNL     1     -44.542  21.515 -20.227  1.00  0.00    -0.013 A 
ATOM      4  C   UNL     1     -44.997  20.385 -20.925  1.00  0.00     0.009 A 
ATOM      5  C   UNL     1     -45.486  19.271 -20.236  1.00  0.00     0.009 A 
ATOM      6  C   UNL     1     -45.531  19.256 -18.836  1.00  0.00    -0.017 A 
ATOM      7  C   UNL     1     -45.081  20.386 -18.138  1.00  0.00     0.019 A 
ATOM      8  C   UNL     1     -44.587  21.512 -18.823  1.00  0.00     0.001 A 
ATOM      9  C   UNL     1     -44.128  22.656 -18.172  1.00  0.00     0.122 A 
ATOM     10  N   UNL     1     -43.645  23.755 -18.799  1.00  0.00    -0.238 NA
ENDROOT
BRANCH   1  11
ATOM     11  N   UNL     1     -43.100  24.911 -20.697  1.00  0.00    -0.311 N 
ATOM     12  C   UNL     1     -42.618  26.018 -20.045  1.00  0.00     0.222 C 
ATOM     13  O   UNL     1     -42.563  26.186 -18.831  1.00  0.00    -0.275 OA
ATOM     14  C   UNL     1     -42.157  27.099 -20.991  1.00  0.00     0.114 C 
ATOM     15  H   UNL     1     -43.120  24.893 -21.707  1.00  0.00     0.171 HD
ENDBRANCH   1  11
BRANCH   6  16
ATOM     16  C   UNL     1     -46.047  18.086 -18.115  1.00  0.00    -0.013 A 
ATOM     17  C   UNL     1     -45.163  17.046 -17.783  1.00  0.00     0.048 A 
ATOM     18  C   UNL     1     -47.408  17.970 -17.744  1.00  0.00    -0.043 A 
ATOM     19  C   UNL     1     -45.620  15.924 -17.100  1.00  0.00     0.123 A 
ATOM     20  C   UNL     1     -47.844  16.826 -17.051  1.00  0.00     0.007 A 
ATOM     21  C   UNL     1     -46.951  15.806 -16.732  1.00  0.00     0.039 A 
ATOM     22  C   UNL     1     -48.406  19.052 -18.069  1.00  0.00     0.045 C 
ATOM     23  F   UNL     1     -44.760  14.945 -16.792  1.00  0.00    -0.207 F 
ENDBRANCH   6  16
TORSDOF 2
ENDMDL
MODEL 6
REMARK minimizedAffinity -10.010498
REMARK CNNscore 0.512926042
REMARK CNNaffinity 5.89080572
REMARK SMILES CC(=O)Nc1cc2ccc(-c3cc(F)ccc3C)cc2cn1
REMARK SMILES IDX 5 1 6 2 7 3 8 4 9 5 10 6 19 7 20 8 21 9 22 10 4 11 2 12 3 13
REMARK SMILES IDX 1 14 11 16 12 17 17 18 13 19 16 20 15 21 18 22 14 23
REMARK H PARENT 4 15
ROOT
ATOM      1  C   UNL     1     -40.423  22.985   6.272  1.00  0.00     0.133 A 
ATOM      2  C   UNL     1     -41.506  23.329   7.069  1.00  0.00     0.056 A 
ATOM      3  C   UNL     1     -42.218  22.319   7.732  1.00  0.00    -0.013 A 
ATOM      4  C   UNL     1     -43.322  22.606   8.550  1.00  0.00     0.009 A 
ATOM      5  C   UNL     1     -44.014  21.578   9.199  1.00  0.00     0.009 A 
ATOM      6  C   UNL     1     -43.624  20.242   9.044  1.00  0.00    -0.017 A 
ATOM      7  C   UNL     1     -42.519  19.955   8.231  1.00  0.00     0.019 A 
ATOM      8  C   UNL     1     -41.817  20.983   7.573  1.00  0.00     0.001 A 
ATOM      9  C   UNL     1     -40.715  20.745   6.753  1.00  0.00     0.122 A 
ATOM     10  N   UNL     1     -40.017  21.709   6.105  1.00  0.00    -0.238 NA
ENDROOT
BRANCH   1  11
ATOM     11  N   UNL     1     -39.641  23.900   5.567  1.00  0.00    -0.311 N 
ATOM     12  C   UNL     1     -39.394  23.952   4.217  1.00  0.00     0.222 C 
ATOM     13  O   UNL     1     -39.814  23.173   3.367  1.00  0.00    -0.275 OA
ATOM     14  C   UNL     1     -38.487  25.094   3.832  1.00  0.00     0.114 C 
ATOM     15  H   UNL     1     -39.219  24.584   6.179  1.00  0.00     0.171 HD
ENDBRANCH   1  11
BRANCH   6  16
ATOM     16  C   UNL     1     -44.350  19.165   9.729  1.00  0.00    -0.013 A 
ATOM     17  C   UNL     1     -45.498  19.483  10.473  1.00  0.00     0.048 A 
ATOM     18  C   UNL     1     -43.931  17.814   9.666  1.00  0.00    -0.043 A 
ATOM     19  C   UNL     1     -46.209  18.487  11.133  1.00  0.00     0.123 A 
ATOM     20  C   UNL     1     -44.669  16.825  10.339  1.00  0.00     0.007 A 
ATOM     21  C   UNL     1     -45.805  17.162  11.073  1.00  0.00     0.039 A 
ATOM     22  C   UNL     1     -42.709  17.408   8.883  1.00  0.00     0.045 C 
ATOM     23  F   UNL     1     -47.301  18.812  11.836  1.00  0.00    -0.207 F 
ENDBRANCH   6  16
TORSDOF 2
ENDMDL
MODEL 7
REMARK minimizedAffinity -9.73770905
REMARK CNNscore 0.418398261
REMARK CNNaffinity 6.09240961
REMARK SMILES CC(=O)Nc1cc2ccc(-c3cc(F)ccc3C)cc2cn1
REMARK SMILES IDX 5 1 6 2 7 3 8 4 9 5 10 6 19 7 20 8 21 9 22 10 4 11 2 12 3 13
REMARK SMILES IDX 1 14 11 16 12 17 17 18 13 19 16 20 15 21 18 22 14 23
REMARK H PARENT 4 15
ROOT
ATOM      1  C   UNL     1     -47.458  14.030 -15.219  1.00  0.00     0.133 A 
ATOM      2  C   UNL     1     -46.353  14.665 -15.767  1.00  0.00     0.056 A 
ATOM      3  C   UNL     1     -46.542  15.803 -16.567  1.00  0.00    -0.013 A 
ATOM      4  C   UNL     1     -45.464  16.487 -17.148  1.00  0.00     0.009 A 
ATOM      5  C   UNL     1     -45.683  17.618 -17.942  1.00  0.00     0.009 A 
ATOM      6  C   UNL     1     -46.980  18.090 -18.175  1.00  0.00    -0.017 A 
ATOM      7  C   UNL     1     -48.058  17.410 -17.591  1.00  0.00     0.019 A 
ATOM      8  C   UNL     1     -47.847  16.270 -16.791  1.00  0.00     0.001 A 
ATOM      9  C   UNL     1     -48.887  15.561 -16.192  1.00  0.00     0.122 A 
ATOM     10  N   UNL     1     -48.721  14.461 -15.419  1.00  0.00    -0.238 NA
ENDROOT
BRANCH   1  11
ATOM     11  N   UNL     1     -47.393  12.895 -14.409  1.00  0.00    -0.311 N 
ATOM     12  C   UNL     1     -48.427  12.143 -13.909  1.00  0.00     0.222 C 
ATOM     13  O   UNL     1     -49.626  12.347 -14.071  1.00  0.00    -0.275 OA
ATOM     14  C   UNL     1     -47.953  10.987 -13.063  1.00  0.00     0.114 C 
ATOM     15  H   UNL     1     -46.440  12.645 -14.189  1.00  0.00     0.171 HD
ENDBRANCH   1  11
BRANCH   6  16
ATOM     16  C   UNL     1     -47.207  19.280 -19.006  1.00  0.00    -0.013 A 
ATOM     17  C   UNL     1     -48.328  20.086 -18.747  1.00  0.00     0.048 A 
ATOM     18  C   UNL     1     -46.336  19.640 -20.062  1.00  0.00    -0.043 A 
ATOM     19  C   UNL     1     -48.572  21.220 -19.515  1.00  0.00     0.123 A 
ATOM     20  C   UNL     1     -46.603  20.792 -20.821  1.00  0.00     0.007 A 
ATOM     21  C   UNL     1     -47.721  21.579 -20.548  1.00  0.00     0.039 A 
ATOM     22  C   UNL     1     -45.116  18.817 -20.388  1.00  0.00     0.045 C 
ATOM     23  F   UNL     1     -49.645  21.976 -19.251  1.00  0.00    -0.207 F 
ENDBRANCH   6  16
TORSDOF 2
ENDMDL
MODEL 8
REMARK minimizedAffinity -8.10914421
REMARK CNNscore 0.415953249
REMARK CNNaffinity 6.00002813
REMARK SMILES CC(=O)Nc1cc2ccc(-c3cc(F)ccc3C)cc2cn1
REMARK SMILES IDX 5 1 6 2 7 3 8 4 9 5 10 6 19 7 20 8 21 9 22 10 4 11 2 12 3 13
REMARK SMILES IDX 1 14 11 16 12 17 17 18 13 19 16 20 15 21 18 22 14 23
REMARK H PARENT 4 15
ROOT
ATOM      1  C   UNL     1     -46.623  16.157 -16.743  1.00  0.00     0.133 A 
ATOM      2  C   UNL     1     -47.959  15.846 -16.534  1.00  0.00     0.056 A 
ATOM      3  C   UNL     1     -48.289  14.753 -15.719  1.00  0.00    -0.013 A 
ATOM      4  C   UNL     1     -49.622  14.390 -15.471  1.00  0.00     0.009 A 
ATOM      5  C   UNL     1     -49.922  13.294 -14.655  1.00  0.00     0.009 A 
ATOM      6  C   UNL     1     -48.902  12.535 -14.070  1.00  0.00    -0.017 A 
ATOM      7  C   UNL     1     -47.569  12.900 -14.313  1.00  0.00     0.019 A 
ATOM      8  C   UNL     1     -47.258  14.000 -15.134  1.00  0.00     0.001 A 
ATOM      9  C   UNL     1     -45.950  14.399 -15.406  1.00  0.00     0.122 A 
ATOM     10  N   UNL     1     -45.614  15.450 -16.191  1.00  0.00    -0.238 NA
ENDROOT
BRANCH   1  11
ATOM     11  N   UNL     1     -46.175  17.219 -17.530  1.00  0.00    -0.311 N 
ATOM     12  C   UNL     1     -46.846  18.364 -17.881  1.00  0.00     0.222 C 
ATOM     13  O   UNL     1     -47.995  18.662 -17.574  1.00  0.00    -0.275 OA
ATOM     14  C   UNL     1     -46.023  19.278 -18.755  1.00  0.00     0.114 C 
ATOM     15  H   UNL     1     -45.233  17.067 -17.864  1.00  0.00     0.171 HD
ENDBRANCH   1  11
BRANCH   6  16
ATOM     16  C   UNL     1     -49.218  11.387 -13.211  1.00  0.00    -0.013 A 
ATOM     17  C   UNL     1     -48.776  10.109 -13.592  1.00  0.00     0.048 A 
ATOM     18  C   UNL     1     -49.958  11.524 -12.012  1.00  0.00    -0.043 A 
ATOM     19  C   UNL     1     -49.059   9.001 -12.801  1.00  0.00     0.123 A 
ATOM     20  C   UNL     1     -50.229  10.388 -11.228  1.00  0.00     0.007 A 
ATOM     21  C   UNL     1     -49.781   9.129 -11.624  1.00  0.00     0.039 A 
ATOM     22  C   UNL     1     -50.459  12.868 -11.548  1.00  0.00     0.045 C 
ATOM     23  F   UNL     1     -48.627   7.792 -13.182  1.00  0.00    -0.207 F 
ENDBRANCH   6  16
TORSDOF 2
ENDMDL
MODEL 9
REMARK minimizedAffinity -8.28315353
REMARK CNNscore 0.39995718
REMARK CNNaffinity 5.35943985
REMARK SMILES CC(=O)Nc1cc2ccc(-c3cc(F)ccc3C)cc2cn1
REMARK SMILES IDX 5 1 6 2 7 3 8 4 9 5 10 6 19 7 20 8 21 9 22 10 4 11 2 12 3 13
REMARK SMILES IDX 1 14 11 16 12 17 17 18 13 19 16 20 15 21 18 22 14 23
REMARK H PARENT 4 15
ROOT
ATOM      1  C   UNL     1     -44.418  14.777  10.153  1.00  0.00     0.133 A 
ATOM      2  C   UNL     1     -45.103  15.984  10.171  1.00  0.00     0.056 A 
ATOM      3  C   UNL     1     -44.484  17.132   9.655  1.00  0.00    -0.013 A 
ATOM      4  C   UNL     1     -45.126  18.380   9.646  1.00  0.00     0.009 A 
ATOM      5  C   UNL     1     -44.484  19.508   9.125  1.00  0.00     0.009 A 
ATOM      6  C   UNL     1     -43.187  19.419   8.604  1.00  0.00    -0.017 A 
ATOM      7  C   UNL     1     -42.546  18.171   8.608  1.00  0.00     0.019 A 
ATOM      8  C   UNL     1     -43.184  17.031   9.131  1.00  0.00     0.001 A 
ATOM      9  C   UNL     1     -42.586  15.772   9.159  1.00  0.00     0.122 A 
ATOM     10  N   UNL     1     -43.170  14.654   9.655  1.00  0.00    -0.238 NA
ENDROOT
BRANCH   1  11
ATOM     11  N   UNL     1     -44.931  13.572  10.637  1.00  0.00    -0.311 N 
ATOM     12  C   UNL     1     -46.124  12.968  10.328  1.00  0.00     0.222 C 
ATOM     13  O   UNL     1     -46.985  13.395   9.565  1.00  0.00    -0.275 OA
ATOM     14  C   UNL     1     -46.327  11.667  11.064  1.00  0.00     0.114 C 
ATOM     15  H   UNL     1     -44.306  13.138  11.301  1.00  0.00     0.171 HD
ENDBRANCH   1  11
BRANCH   6  16
ATOM     16  C   UNL     1     -42.516  20.603   8.055  1.00  0.00    -0.013 A 
ATOM     17  C   UNL     1     -41.381  20.429   7.247  1.00  0.00     0.048 A 
ATOM     18  C   UNL     1     -42.974  21.918   8.315  1.00  0.00    -0.043 A 
ATOM     19  C   UNL     1     -40.722  21.530   6.711  1.00  0.00     0.123 A 
ATOM     20  C   UNL     1     -42.291  23.014   7.759  1.00  0.00     0.007 A 
ATOM     21  C   UNL     1     -41.167  22.819   6.960  1.00  0.00     0.039 A 
ATOM     22  C   UNL     1     -44.187  22.171   9.173  1.00  0.00     0.045 C 
ATOM     23  F   UNL     1     -39.642  21.342   5.942  1.00  0.00    -0.207 F 
ENDBRANCH   6  16
TORSDOF 2
ENDMDL
