MODEL 1
REMARK minimizedAffinity -9.22207165
REMARK CNNscore 0.886518717
REMARK CNNaffinity 7.56376505
REMARK SMILES C#Cc1cc(OC)c(-c2ccc3nc(NC(=O)NCO)sc3c2)cc1C=O
REMARK SMILES IDX 9 1 10 2 11 3 12 4 13 5 14 6 21 7 22 8 23 9 8 10 2 11 3 12
REMARK SMILES IDX 4 13 25 14 5 15 24 16 1 17 26 18 27 19 6 20 7 21 15 22 16 23
REMARK SMILES IDX 17 24 18 25 19 28 20 29
REMARK H PARENT 15 26 18 27 20 30
ROOT
ATOM      1  C   UNL     1     -46.702  18.385 -18.693  1.00  0.00    -0.013 A 
ATOM      2  C   UNL     1     -47.853  18.670 -17.945  1.00  0.00     0.011 A 
ATOM      3  C   UNL     1     -48.273  17.832 -16.904  1.00  0.00     0.030 A 
ATOM      4  C   UNL     1     -47.532  16.677 -16.595  1.00  0.00     0.084 A 
ATOM      5  N   UNL     1     -47.828  15.764 -15.599  1.00  0.00    -0.220 NA
ATOM      6  C   UNL     1     -46.927  14.819 -15.592  1.00  0.00     0.191 A 
ATOM      7  S   UNL     1     -45.687  14.932 -16.758  1.00  0.00    -0.097 S 
ATOM      8  C   UNL     1     -46.388  16.394 -17.343  1.00  0.00     0.057 A 
ATOM      9  C   UNL     1     -45.957  17.231 -18.389  1.00  0.00     0.030 A 
ENDROOT
BRANCH   1  10
ATOM     10  C   UNL     1     -46.269  19.290 -19.776  1.00  0.00     0.025 A 
ATOM     11  C   UNL     1     -44.989  21.845 -22.937  1.00  0.00    -0.070 C 
ATOM     12  C   UNL     1     -45.382  20.944 -21.892  1.00  0.00     0.038 A 
ATOM     13  C   UNL     1     -46.359  21.395 -20.990  1.00  0.00     0.065 A 
ATOM     14  C   UNL     1     -44.843  19.663 -21.737  1.00  0.00     0.031 A 
ATOM     15  C   UNL     1     -46.805  20.586 -19.938  1.00  0.00     0.127 A 
ATOM     16  C   UNL     1     -45.288  18.847 -20.684  1.00  0.00     0.025 A 
ATOM     17  C   UNL     1     -44.669  22.608 -23.807  1.00  0.00     0.010 C 
BRANCH  14  18
ATOM     18  C   UNL     1     -43.806  19.080 -22.629  1.00  0.00     0.261 C 
ATOM     19  O   UNL     1     -43.009  19.731 -23.289  1.00  0.00    -0.298 OA
ENDBRANCH  14  18
BRANCH  15  20
ATOM     20  O   UNL     1     -47.751  20.967 -19.020  1.00  0.00    -0.496 OA
ATOM     21  C   UNL     1     -48.947  21.563 -19.507  1.00  0.00     0.278 C 
ENDBRANCH  15  20
ENDBRANCH   1  10
BRANCH   6  22
ATOM     22  N   UNL     1     -46.829  13.718 -14.789  1.00  0.00    -0.284 N 
ATOM     23  C   UNL     1     -47.923  12.998 -14.386  1.00  0.00     0.322 C 
ATOM     24  O   UNL     1     -49.100  13.238 -14.616  1.00  0.00    -0.248 OA
ATOM     25  N   UNL     1     -47.542  11.899 -13.639  1.00  0.00    -0.315 N 
ATOM     26  H   UNL     1     -45.934  13.533 -14.371  1.00  0.00     0.174 HD
ATOM     27  H   UNL     1     -46.692  11.447 -13.936  1.00  0.00     0.167 HD
BRANCH  25  28
ATOM     28  C   UNL     1     -48.540  11.002 -13.150  1.00  0.00     0.277 C 
BRANCH  28  29
ATOM     29  O   UNL     1     -48.348  10.910 -11.759  1.00  0.00    -0.376 OA
ATOM     30  H   UNL     1     -47.501  10.434 -11.665  1.00  0.00     0.212 HD
ENDBRANCH  28  29
ENDBRANCH  25  28
ENDBRANCH   6  22
TORSDOF 6
ENDMDL
MODEL 2
REMARK minimizedAffinity -9.51685047
REMARK CNNscore 0.736189961
REMARK CNNaffinity 7.43442345
REMARK SMILES C#Cc1cc(OC)c(-c2ccc3nc(NC(=O)NCO)sc3c2)cc1C=O
REMARK SMILES IDX 9 1 10 2 11 3 12 4 13 5 14 6 21 7 22 8 23 9 8 10 2 11 3 12
REMARK SMILES IDX 4 13 25 14 5 15 24 16 1 17 26 18 27 19 6 20 7 21 15 22 16 23
REMARK SMILES IDX 17 24 18 25 19 28 20 29
REMARK H PARENT 15 26 18 27 20 30
ROOT
ATOM      1  C   UNL     1     -45.556  19.563 -19.070  1.00  0.00    -0.013 A 
ATOM      2  C   UNL     1     -45.347  19.395 -20.446  1.00  0.00     0.011 A 
ATOM      3  C   UNL     1     -44.753  20.398 -21.222  1.00  0.00     0.030 A 
ATOM      4  C   UNL     1     -44.356  21.606 -20.619  1.00  0.00     0.084 A 
ATOM      5  N   UNL     1     -43.761  22.678 -21.259  1.00  0.00    -0.220 NA
ATOM      6  C   UNL     1     -43.525  23.626 -20.394  1.00  0.00     0.191 A 
ATOM      7  S   UNL     1     -43.996  23.329 -18.782  1.00  0.00    -0.097 S 
ATOM      8  C   UNL     1     -44.568  21.771 -19.248  1.00  0.00     0.057 A 
ATOM      9  C   UNL     1     -45.160  20.768 -18.460  1.00  0.00     0.030 A 
ENDROOT
BRANCH   1  10
ATOM     10  C   UNL     1     -46.168  18.486 -18.268  1.00  0.00     0.025 A 
ATOM     11  C   UNL     1     -47.868  15.353 -15.934  1.00  0.00    -0.070 C 
ATOM     12  C   UNL     1     -47.245  16.378 -16.719  1.00  0.00     0.038 A 
ATOM     13  C   UNL     1     -48.045  17.464 -17.108  1.00  0.00     0.065 A 
ATOM     14  C   UNL     1     -45.901  16.342 -17.105  1.00  0.00     0.031 A 
ATOM     15  C   UNL     1     -47.524  18.512 -17.876  1.00  0.00     0.127 A 
ATOM     16  C   UNL     1     -45.373  17.392 -17.874  1.00  0.00     0.025 A 
ATOM     17  C   UNL     1     -48.402  14.501 -15.277  1.00  0.00     0.010 C 
BRANCH  14  18
ATOM     18  C   UNL     1     -44.960  15.247 -16.751  1.00  0.00     0.261 C 
ATOM     19  O   UNL     1     -45.266  14.066 -16.666  1.00  0.00    -0.298 OA
ENDBRANCH  14  18
BRANCH  15  20
ATOM     20  O   UNL     1     -48.252  19.597 -18.294  1.00  0.00    -0.496 OA
ATOM     21  C   UNL     1     -48.311  19.861 -19.689  1.00  0.00     0.278 C 
ENDBRANCH  15  20
ENDBRANCH   1  10
BRANCH   6  22
ATOM     22  N   UNL     1     -42.962  24.856 -20.586  1.00  0.00    -0.284 N 
ATOM     23  C   UNL     1     -42.362  25.560 -19.575  1.00  0.00     0.322 C 
ATOM     24  O   UNL     1     -42.285  25.251 -18.394  1.00  0.00    -0.248 OA
ATOM     25  N   UNL     1     -41.817  26.738 -20.051  1.00  0.00    -0.315 N 
ATOM     26  H   UNL     1     -43.134  25.307 -21.468  1.00  0.00     0.174 HD
ATOM     27  H   UNL     1     -41.412  26.687 -20.972  1.00  0.00     0.167 HD
BRANCH  25  28
ATOM     28  C   UNL     1     -41.118  27.602 -19.154  1.00  0.00     0.277 C 
BRANCH  28  29
ATOM     29  O   UNL     1     -41.069  28.865 -19.771  1.00  0.00    -0.376 OA
ATOM     30  H   UNL     1     -40.469  28.737 -20.531  1.00  0.00     0.212 HD
ENDBRANCH  28  29
ENDBRANCH  25  28
ENDBRANCH   6  22
TORSDOF 6
ENDMDL
MODEL 3
REMARK minimizedAffinity -6.12470293
REMARK CNNscore 0.726417243
REMARK CNNaffinity 7.18252945
REMARK SMILES C#Cc1cc(OC)c(-c2ccc3nc(NC(=O)NCO)sc3c2)cc1C=O
REMARK SMILES IDX 9 1 10 2 11 3 12 4 13 5 14 6 21 7 22 8 23 9 8 10 2 11 3 12
REMARK SMILES IDX 4 13 25 14 5 15 24 16 1 17 26 18 27 19 6 20 7 21 15 22 16 23
REMARK SMILES IDX 17 24 18 25 19 28 20 29
REMARK H PARENT 15 26 18 27 20 30
ROOT
ATOM      1  C   UNL     1     -46.622  18.794 -18.407  1.00  0.00    -0.013 A 
ATOM      2  C   UNL     1     -45.611  17.963 -18.910  1.00  0.00     0.011 A 
ATOM      3  C   UNL     1     -45.379  16.689 -18.373  1.00  0.00     0.030 A 
ATOM      4  C   UNL     1     -46.169  16.226 -17.305  1.00  0.00     0.084 A 
ATOM      5  N   UNL     1     -46.053  14.998 -16.681  1.00  0.00    -0.220 NA
ATOM      6  C   UNL     1     -46.949  14.903 -15.736  1.00  0.00     0.191 A 
ATOM      7  S   UNL     1     -47.974  16.247 -15.512  1.00  0.00    -0.097 S 
ATOM      8  C   UNL     1     -47.174  17.058 -16.806  1.00  0.00     0.057 A 
ATOM      9  C   UNL     1     -47.416  18.336 -17.340  1.00  0.00     0.030 A 
ENDROOT
BRANCH   1  10
ATOM     10  C   UNL     1     -46.860  20.125 -18.999  1.00  0.00     0.025 A 
ATOM     11  C   UNL     1     -47.619  23.965 -20.683  1.00  0.00    -0.070 C 
ATOM     12  C   UNL     1     -47.422  22.663 -20.115  1.00  0.00     0.038 A 
ATOM     13  C   UNL     1     -46.097  22.254 -19.892  1.00  0.00     0.065 A 
ATOM     14  C   UNL     1     -48.472  21.801 -19.781  1.00  0.00     0.031 A 
ATOM     15  C   UNL     1     -45.807  21.000 -19.342  1.00  0.00     0.127 A 
ATOM     16  C   UNL     1     -48.186  20.543 -19.227  1.00  0.00     0.025 A 
ATOM     17  C   UNL     1     -47.770  25.057 -21.160  1.00  0.00     0.010 C 
BRANCH  14  18
ATOM     18  C   UNL     1     -49.910  22.126 -19.971  1.00  0.00     0.261 C 
ATOM     19  O   UNL     1     -50.390  22.593 -20.994  1.00  0.00    -0.298 OA
ENDBRANCH  14  18
BRANCH  15  20
ATOM     20  O   UNL     1     -44.537  20.538 -19.104  1.00  0.00    -0.496 OA
ATOM     21  C   UNL     1     -43.447  21.392 -19.428  1.00  0.00     0.278 C 
ENDBRANCH  15  20
ENDBRANCH   1  10
BRANCH   6  22
ATOM     22  N   UNL     1     -47.188  13.876 -14.867  1.00  0.00    -0.284 N 
ATOM     23  C   UNL     1     -48.387  13.216 -14.815  1.00  0.00     0.322 C 
ATOM     24  O   UNL     1     -49.400  13.457 -15.458  1.00  0.00    -0.248 OA
ATOM     25  N   UNL     1     -48.342  12.181 -13.901  1.00  0.00    -0.315 N 
ATOM     26  H   UNL     1     -46.502  13.712 -14.151  1.00  0.00     0.174 HD
ATOM     27  H   UNL     1     -47.465  11.687 -13.847  1.00  0.00     0.167 HD
BRANCH  25  28
ATOM     28  C   UNL     1     -49.489  11.350 -13.721  1.00  0.00     0.277 C 
BRANCH  28  29
ATOM     29  O   UNL     1     -49.799  10.817 -14.986  1.00  0.00    -0.376 OA
ATOM     30  H   UNL     1     -50.112  11.586 -15.500  1.00  0.00     0.212 HD
ENDBRANCH  28  29
ENDBRANCH  25  28
ENDBRANCH   6  22
TORSDOF 6
ENDMDL
MODEL 4
REMARK minimizedAffinity -7.03390646
REMARK CNNscore 0.601083994
REMARK CNNaffinity 7.22407341
REMARK SMILES C#Cc1cc(OC)c(-c2ccc3nc(NC(=O)NCO)sc3c2)cc1C=O
REMARK SMILES IDX 9 1 10 2 11 3 12 4 13 5 14 6 21 7 22 8 23 9 8 10 2 11 3 12
REMARK SMILES IDX 4 13 25 14 5 15 24 16 1 17 26 18 27 19 6 20 7 21 15 22 16 23
REMARK SMILES IDX 17 24 18 25 19 28 20 29
REMARK H PARENT 15 26 18 27 20 30
ROOT
ATOM      1  C   UNL     1     -46.270  18.429 -18.126  1.00  0.00    -0.013 A 
ATOM      2  C   UNL     1     -47.603  18.527 -17.703  1.00  0.00     0.011 A 
ATOM      3  C   UNL     1     -48.186  17.544 -16.892  1.00  0.00     0.030 A 
ATOM      4  C   UNL     1     -47.427  16.429 -16.492  1.00  0.00     0.084 A 
ATOM      5  N   UNL     1     -47.870  15.387 -15.697  1.00  0.00    -0.220 NA
ATOM      6  C   UNL     1     -46.901  14.529 -15.523  1.00  0.00     0.191 A 
ATOM      7  S   UNL     1     -45.419  14.881 -16.288  1.00  0.00    -0.097 S 
ATOM      8  C   UNL     1     -46.100  16.333 -16.917  1.00  0.00     0.057 A 
ATOM      9  C   UNL     1     -45.506  17.317 -17.728  1.00  0.00     0.030 A 
ENDROOT
BRANCH   1  10
ATOM     10  C   UNL     1     -45.672  19.485 -18.966  1.00  0.00     0.025 A 
ATOM     11  C   UNL     1     -43.918  22.566 -21.330  1.00  0.00    -0.070 C 
ATOM     12  C   UNL     1     -44.504  21.564 -20.487  1.00  0.00     0.038 A 
ATOM     13  C   UNL     1     -44.895  20.362 -21.097  1.00  0.00     0.065 A 
ATOM     14  C   UNL     1     -44.696  21.731 -19.112  1.00  0.00     0.031 A 
ATOM     15  C   UNL     1     -45.477  19.326 -20.355  1.00  0.00     0.127 A 
ATOM     16  C   UNL     1     -45.277  20.695 -18.363  1.00  0.00     0.025 A 
ATOM     17  C   UNL     1     -43.430  23.397 -22.047  1.00  0.00     0.010 C 
BRANCH  14  18
ATOM     18  C   UNL     1     -44.320  22.957 -18.360  1.00  0.00     0.261 C 
ATOM     19  O   UNL     1     -43.494  23.778 -18.733  1.00  0.00    -0.298 OA
ENDBRANCH  14  18
BRANCH  15  20
ATOM     20  O   UNL     1     -45.887  18.131 -20.891  1.00  0.00    -0.496 OA
ATOM     21  C   UNL     1     -46.090  18.067 -22.296  1.00  0.00     0.278 C 
ENDBRANCH  15  20
ENDBRANCH   1  10
BRANCH   6  22
ATOM     22  N   UNL     1     -46.896  13.357 -14.821  1.00  0.00    -0.284 N 
ATOM     23  C   UNL     1     -48.020  12.844 -14.231  1.00  0.00     0.322 C 
ATOM     24  O   UNL     1     -49.135  13.346 -14.186  1.00  0.00    -0.248 OA
ATOM     25  N   UNL     1     -47.755  11.620 -13.645  1.00  0.00    -0.315 N 
ATOM     26  H   UNL     1     -46.000  12.948 -14.619  1.00  0.00     0.174 HD
ATOM     27  H   UNL     1     -47.105  11.033 -14.143  1.00  0.00     0.167 HD
BRANCH  25  28
ATOM     28  C   UNL     1     -48.810  10.906 -13.000  1.00  0.00     0.277 C 
BRANCH  28  29
ATOM     29  O   UNL     1     -49.030  11.544 -11.766  1.00  0.00    -0.376 OA
ATOM     30  H   UNL     1     -48.226  11.346 -11.247  1.00  0.00     0.212 HD
ENDBRANCH  28  29
ENDBRANCH  25  28
ENDBRANCH   6  22
TORSDOF 6
ENDMDL
MODEL 5
REMARK minimizedAffinity -5.63578224
REMARK CNNscore 0.518339694
REMARK CNNaffinity 7.1160264
REMARK SMILES C#Cc1cc(OC)c(-c2ccc3nc(NC(=O)NCO)sc3c2)cc1C=O
REMARK SMILES IDX 9 1 10 2 11 3 12 4 13 5 14 6 21 7 22 8 23 9 8 10 2 11 3 12
REMARK SMILES IDX 4 13 25 14 5 15 24 16 1 17 26 18 27 19 6 20 7 21 15 22 16 23
REMARK SMILES IDX 17 24 18 25 19 28 20 29
REMARK H PARENT 15 26 18 27 20 30
ROOT
ATOM      1  C   UNL     1     -46.127  17.650 -17.882  1.00  0.00    -0.013 A 
ATOM      2  C   UNL     1     -44.949  16.939 -17.614  1.00  0.00     0.011 A 
ATOM      3  C   UNL     1     -44.966  15.755 -16.864  1.00  0.00     0.030 A 
ATOM      4  C   UNL     1     -46.185  15.263 -16.362  1.00  0.00     0.084 A 
ATOM      5  N   UNL     1     -46.349  14.114 -15.610  1.00  0.00    -0.220 NA
ATOM      6  C   UNL     1     -47.613  13.960 -15.320  1.00  0.00     0.191 A 
ATOM      7  S   UNL     1     -48.683  15.156 -15.897  1.00  0.00    -0.097 S 
ATOM      8  C   UNL     1     -47.356  15.976 -16.628  1.00  0.00     0.057 A 
ATOM      9  C   UNL     1     -47.349  17.163 -17.383  1.00  0.00     0.030 A 
ENDROOT
BRANCH   1  10
ATOM     10  C   UNL     1     -46.089  18.886 -18.688  1.00  0.00     0.025 A 
ATOM     11  C   UNL     1     -45.912  22.433 -21.042  1.00  0.00    -0.070 C 
ATOM     12  C   UNL     1     -45.913  21.233 -20.256  1.00  0.00     0.038 A 
ATOM     13  C   UNL     1     -47.144  20.814 -19.728  1.00  0.00     0.065 A 
ATOM     14  C   UNL     1     -44.763  20.479 -20.001  1.00  0.00     0.031 A 
ATOM     15  C   UNL     1     -47.244  19.655 -18.948  1.00  0.00     0.127 A 
ATOM     16  C   UNL     1     -44.858  19.315 -19.221  1.00  0.00     0.025 A 
ATOM     17  C   UNL     1     -45.924  23.440 -21.698  1.00  0.00     0.010 C 
BRANCH  14  18
ATOM     18  C   UNL     1     -43.409  20.824 -20.508  1.00  0.00     0.261 C 
ATOM     19  O   UNL     1     -42.770  21.811 -20.173  1.00  0.00    -0.298 OA
ENDBRANCH  14  18
BRANCH  15  20
ATOM     20  O   UNL     1     -48.413  19.194 -18.398  1.00  0.00    -0.496 OA
ATOM     21  C   UNL     1     -49.536  20.066 -18.398  1.00  0.00     0.278 C 
ENDBRANCH  15  20
ENDBRANCH   1  10
BRANCH   6  22
ATOM     22  N   UNL     1     -48.224  12.977 -14.594  1.00  0.00    -0.284 N 
ATOM     23  C   UNL     1     -49.286  13.222 -13.764  1.00  0.00     0.322 C 
ATOM     24  O   UNL     1     -49.796  14.303 -13.506  1.00  0.00    -0.248 OA
ATOM     25  N   UNL     1     -49.755  12.049 -13.205  1.00  0.00    -0.315 N 
ATOM     26  H   UNL     1     -47.773  12.079 -14.569  1.00  0.00     0.174 HD
ATOM     27  H   UNL     1     -49.731  11.241 -13.807  1.00  0.00     0.167 HD
BRANCH  25  28
ATOM     28  C   UNL     1     -50.883  12.090 -12.330  1.00  0.00     0.277 C 
BRANCH  28  29
ATOM     29  O   UNL     1     -51.178  13.449 -12.120  1.00  0.00    -0.376 OA
ATOM     30  H   UNL     1     -50.426  13.779 -11.591  1.00  0.00     0.212 HD
ENDBRANCH  28  29
ENDBRANCH  25  28
ENDBRANCH   6  22
TORSDOF 6
ENDMDL
MODEL 6
REMARK minimizedAffinity -7.85390711
REMARK CNNscore 0.32881847
REMARK CNNaffinity 6.47317696
REMARK SMILES C#Cc1cc(OC)c(-c2ccc3nc(NC(=O)NCO)sc3c2)cc1C=O
REMARK SMILES IDX 9 1 10 2 11 3 12 4 13 5 14 6 21 7 22 8 23 9 8 10 2 11 3 12
REMARK SMILES IDX 4 13 25 14 5 15 24 16 1 17 26 18 27 19 6 20 7 21 15 22 16 23
REMARK SMILES IDX 17 24 18 25 19 28 20 29
REMARK H PARENT 15 26 18 27 20 30
ROOT
ATOM      1  C   UNL     1     -46.447  16.742 -17.509  1.00  0.00    -0.013 A 
ATOM      2  C   UNL     1     -45.272  16.131 -17.050  1.00  0.00     0.011 A 
ATOM      3  C   UNL     1     -45.312  15.030 -16.184  1.00  0.00     0.030 A 
ATOM      4  C   UNL     1     -46.552  14.520 -15.758  1.00  0.00     0.084 A 
ATOM      5  N   UNL     1     -46.741  13.445 -14.910  1.00  0.00    -0.220 NA
ATOM      6  C   UNL     1     -48.019  13.247 -14.734  1.00  0.00     0.191 A 
ATOM      7  S   UNL     1     -49.078  14.314 -15.539  1.00  0.00    -0.097 S 
ATOM      8  C   UNL     1     -47.721  15.132 -16.216  1.00  0.00     0.057 A 
ATOM      9  C   UNL     1     -47.691  16.236 -17.088  1.00  0.00     0.030 A 
ENDROOT
BRANCH   1  10
ATOM     10  C   UNL     1     -46.383  17.890 -18.434  1.00  0.00     0.025 A 
ATOM     11  C   UNL     1     -46.176  21.160 -21.159  1.00  0.00    -0.070 C 
ATOM     12  C   UNL     1     -46.213  20.028 -20.279  1.00  0.00     0.038 A 
ATOM     13  C   UNL     1     -46.892  20.184 -19.060  1.00  0.00     0.065 A 
ATOM     14  C   UNL     1     -45.616  18.799 -20.580  1.00  0.00     0.031 A 
ATOM     15  C   UNL     1     -46.980  19.134 -18.138  1.00  0.00     0.127 A 
ATOM     16  C   UNL     1     -45.703  17.742 -19.659  1.00  0.00     0.025 A 
ATOM     17  C   UNL     1     -46.151  22.115 -21.886  1.00  0.00     0.010 C 
BRANCH  14  18
ATOM     18  C   UNL     1     -44.874  18.517 -21.838  1.00  0.00     0.261 C 
ATOM     19  O   UNL     1     -45.375  18.499 -22.952  1.00  0.00    -0.298 OA
ENDBRANCH  14  18
BRANCH  15  20
ATOM     20  O   UNL     1     -47.622  19.224 -16.928  1.00  0.00    -0.496 OA
ATOM     21  C   UNL     1     -48.012  18.014 -16.292  1.00  0.00     0.278 C 
ENDBRANCH  15  20
ENDBRANCH   1  10
BRANCH   6  22
ATOM     22  N   UNL     1     -48.656  12.308 -13.973  1.00  0.00    -0.284 N 
ATOM     23  C   UNL     1     -49.720  11.579 -14.437  1.00  0.00     0.322 C 
ATOM     24  O   UNL     1     -50.278  11.681 -15.521  1.00  0.00    -0.248 OA
ATOM     25  N   UNL     1     -50.132  10.655 -13.496  1.00  0.00    -0.315 N 
ATOM     26  H   UNL     1     -48.417  12.268 -12.998  1.00  0.00     0.174 HD
ATOM     27  H   UNL     1     -49.396  10.230 -12.954  1.00  0.00     0.167 HD
BRANCH  25  28
ATOM     28  C   UNL     1     -51.213   9.774 -13.802  1.00  0.00     0.277 C 
BRANCH  28  29
ATOM     29  O   UNL     1     -52.370  10.572 -13.881  1.00  0.00    -0.376 OA
ATOM     30  H   UNL     1     -52.523  10.863 -12.961  1.00  0.00     0.212 HD
ENDBRANCH  28  29
ENDBRANCH  25  28
ENDBRANCH   6  22
TORSDOF 6
ENDMDL
MODEL 7
REMARK minimizedAffinity -6.14334679
REMARK CNNscore 0.264504611
REMARK CNNaffinity 5.35154724
REMARK SMILES C#Cc1cc(OC)c(-c2ccc3nc(NC(=O)NCO)sc3c2)cc1C=O
REMARK SMILES IDX 9 1 10 2 11 3 12 4 13 5 14 6 21 7 22 8 23 9 8 10 2 11 3 12
REMARK SMILES IDX 4 13 25 14 5 15 24 16 1 17 26 18 27 19 6 20 7 21 15 22 16 23
REMARK SMILES IDX 17 24 18 25 19 28 20 29
REMARK H PARENT 15 26 18 27 20 30
ROOT
ATOM      1  C   UNL     1     -43.071  31.564 -20.824  1.00  0.00    -0.013 A 
ATOM      2  C   UNL     1     -43.490  32.465 -19.834  1.00  0.00     0.011 A 
ATOM      3  C   UNL     1     -43.540  33.844 -20.077  1.00  0.00     0.030 A 
ATOM      4  C   UNL     1     -43.163  34.346 -21.336  1.00  0.00     0.084 A 
ATOM      5  N   UNL     1     -43.164  35.677 -21.714  1.00  0.00    -0.220 NA
ATOM      6  C   UNL     1     -42.760  35.779 -22.951  1.00  0.00     0.191 A 
ATOM      7  S   UNL     1     -42.342  34.328 -23.744  1.00  0.00    -0.097 S 
ATOM      8  C   UNL     1     -42.744  33.447 -22.318  1.00  0.00     0.057 A 
ATOM      9  C   UNL     1     -42.693  32.061 -22.085  1.00  0.00     0.030 A 
ENDROOT
BRANCH   1  10
ATOM     10  C   UNL     1     -43.040  30.114 -20.551  1.00  0.00     0.025 A 
ATOM     11  C   UNL     1     -42.910  25.940 -19.707  1.00  0.00    -0.070 C 
ATOM     12  C   UNL     1     -42.907  27.352 -19.956  1.00  0.00     0.038 A 
ATOM     13  C   UNL     1     -43.890  27.852 -20.825  1.00  0.00     0.065 A 
ATOM     14  C   UNL     1     -41.985  28.234 -19.382  1.00  0.00     0.031 A 
ATOM     15  C   UNL     1     -43.965  29.217 -21.129  1.00  0.00     0.127 A 
ATOM     16  C   UNL     1     -42.057  29.603 -19.682  1.00  0.00     0.025 A 
ATOM     17  C   UNL     1     -42.923  24.756 -19.506  1.00  0.00     0.010 C 
BRANCH  14  18
ATOM     18  C   UNL     1     -40.904  27.819 -18.449  1.00  0.00     0.261 C 
ATOM     19  O   UNL     1     -41.052  27.633 -17.250  1.00  0.00    -0.298 OA
ENDBRANCH  14  18
BRANCH  15  20
ATOM     20  O   UNL     1     -44.895  29.768 -21.973  1.00  0.00    -0.496 OA
ATOM     21  C   UNL     1     -46.212  29.234 -21.951  1.00  0.00     0.278 C 
ENDBRANCH  15  20
ENDBRANCH   1  10
BRANCH   6  22
ATOM     22  N   UNL     1     -42.599  36.895 -23.723  1.00  0.00    -0.284 N 
ATOM     23  C   UNL     1     -41.373  37.318 -24.164  1.00  0.00     0.322 C 
ATOM     24  O   UNL     1     -40.280  36.831 -23.910  1.00  0.00    -0.248 OA
ATOM     25  N   UNL     1     -41.498  38.428 -24.978  1.00  0.00    -0.315 N 
ATOM     26  H   UNL     1     -43.399  37.493 -23.837  1.00  0.00     0.174 HD
ATOM     27  H   UNL     1     -42.306  38.436 -25.579  1.00  0.00     0.167 HD
BRANCH  25  28
ATOM     28  C   UNL     1     -40.330  39.004 -25.565  1.00  0.00     0.277 C 
BRANCH  28  29
ATOM     29  O   UNL     1     -39.851  38.070 -26.502  1.00  0.00    -0.376 OA
ATOM     30  H   UNL     1     -39.528  37.327 -25.956  1.00  0.00     0.212 HD
ENDBRANCH  28  29
ENDBRANCH  25  28
ENDBRANCH   6  22
TORSDOF 6
ENDMDL
MODEL 8
REMARK minimizedAffinity -8.4165802
REMARK CNNscore 0.235372886
REMARK CNNaffinity 5.64889383
REMARK SMILES C#Cc1cc(OC)c(-c2ccc3nc(NC(=O)NCO)sc3c2)cc1C=O
REMARK SMILES IDX 9 1 10 2 11 3 12 4 13 5 14 6 21 7 22 8 23 9 8 10 2 11 3 12
REMARK SMILES IDX 4 13 25 14 5 15 24 16 1 17 26 18 27 19 6 20 7 21 15 22 16 23
REMARK SMILES IDX 17 24 18 25 19 28 20 29
REMARK H PARENT 15 26 18 27 20 30
ROOT
ATOM      1  C   UNL     1     -43.793  19.139   9.154  1.00  0.00    -0.013 A 
ATOM      2  C   UNL     1     -44.421  20.329   9.549  1.00  0.00     0.011 A 
ATOM      3  C   UNL     1     -43.901  21.581   9.195  1.00  0.00     0.030 A 
ATOM      4  C   UNL     1     -42.723  21.657   8.429  1.00  0.00     0.084 A 
ATOM      5  N   UNL     1     -42.100  22.819   8.009  1.00  0.00    -0.220 NA
ATOM      6  C   UNL     1     -41.036  22.517   7.316  1.00  0.00     0.191 A 
ATOM      7  S   UNL     1     -40.690  20.858   7.124  1.00  0.00    -0.097 S 
ATOM      8  C   UNL     1     -42.099  20.470   8.039  1.00  0.00     0.057 A 
ATOM      9  C   UNL     1     -42.615  19.209   8.388  1.00  0.00     0.030 A 
ENDROOT
BRANCH   1  10
ATOM     10  C   UNL     1     -44.366  17.831   9.525  1.00  0.00     0.025 A 
ATOM     11  C   UNL     1     -46.090  14.079  10.577  1.00  0.00    -0.070 C 
ATOM     12  C   UNL     1     -45.563  15.366  10.226  1.00  0.00     0.038 A 
ATOM     13  C   UNL     1     -44.177  15.459  10.024  1.00  0.00     0.065 A 
ATOM     14  C   UNL     1     -46.357  16.508  10.078  1.00  0.00     0.031 A 
ATOM     15  C   UNL     1     -43.573  16.674   9.680  1.00  0.00     0.127 A 
ATOM     16  C   UNL     1     -45.756  17.729   9.730  1.00  0.00     0.025 A 
ATOM     17  C   UNL     1     -46.518  12.996  10.871  1.00  0.00     0.010 C 
BRANCH  14  18
ATOM     18  C   UNL     1     -47.832  16.529  10.263  1.00  0.00     0.261 C 
ATOM     19  O   UNL     1     -48.627  17.019   9.475  1.00  0.00    -0.298 OA
ENDBRANCH  14  18
BRANCH  15  20
ATOM     20  O   UNL     1     -42.225  16.833   9.475  1.00  0.00    -0.496 OA
ATOM     21  C   UNL     1     -41.335  16.101  10.307  1.00  0.00     0.278 C 
ENDBRANCH  15  20
ENDBRANCH   1  10
BRANCH   6  22
ATOM     22  N   UNL     1     -40.124  23.342   6.721  1.00  0.00    -0.284 N 
ATOM     23  C   UNL     1     -39.886  23.329   5.372  1.00  0.00     0.322 C 
ATOM     24  O   UNL     1     -40.377  22.585   4.535  1.00  0.00    -0.248 OA
ATOM     25  N   UNL     1     -38.971  24.305   5.024  1.00  0.00    -0.315 N 
ATOM     26  H   UNL     1     -39.514  23.864   7.326  1.00  0.00     0.174 HD
ATOM     27  H   UNL     1     -39.039  25.167   5.540  1.00  0.00     0.167 HD
BRANCH  25  28
ATOM     28  C   UNL     1     -38.611  24.474   3.652  1.00  0.00     0.277 C 
BRANCH  28  29
ATOM     29  O   UNL     1     -39.154  25.706   3.245  1.00  0.00    -0.376 OA
ATOM     30  H   UNL     1     -40.119  25.554   3.244  1.00  0.00     0.212 HD
ENDBRANCH  28  29
ENDBRANCH  25  28
ENDBRANCH   6  22
TORSDOF 6
ENDMDL
MODEL 9
REMARK minimizedAffinity -6.36199665
REMARK CNNscore 0.226780906
REMARK CNNaffinity 6.19758415
REMARK SMILES C#Cc1cc(OC)c(-c2ccc3nc(NC(=O)NCO)sc3c2)cc1C=O
REMARK SMILES IDX 9 1 10 2 11 3 12 4 13 5 14 6 21 7 22 8 23 9 8 10 2 11 3 12
REMARK SMILES IDX 4 13 25 14 5 15 24 16 1 17 26 18 27 19 6 20 7 21 15 22 16 23
REMARK SMILES IDX 17 24 18 25 19 28 20 29
REMARK H PARENT 15 26 18 27 20 30
ROOT
ATOM      1  C   UNL     1     -47.645  20.879 -19.561  1.00  0.00    -0.013 A 
ATOM      2  C   UNL     1     -46.799  21.855 -20.108  1.00  0.00     0.011 A 
ATOM      3  C   UNL     1     -47.304  23.060 -20.613  1.00  0.00     0.030 A 
ATOM      4  C   UNL     1     -48.689  23.305 -20.579  1.00  0.00     0.084 A 
ATOM      5  N   UNL     1     -49.324  24.444 -21.040  1.00  0.00    -0.220 NA
ATOM      6  C   UNL     1     -50.611  24.335 -20.847  1.00  0.00     0.191 A 
ATOM      7  S   UNL     1     -51.158  22.889 -20.127  1.00  0.00    -0.097 S 
ATOM      8  C   UNL     1     -49.530  22.331 -20.037  1.00  0.00     0.057 A 
ATOM      9  C   UNL     1     -49.031  21.120 -19.524  1.00  0.00     0.030 A 
ENDROOT
BRANCH   1  10
ATOM     10  C   UNL     1     -47.090  19.624 -19.019  1.00  0.00     0.025 A 
ATOM     11  C   UNL     1     -45.549  15.989 -17.416  1.00  0.00    -0.070 C 
ATOM     12  C   UNL     1     -46.107  17.214 -17.912  1.00  0.00     0.038 A 
ATOM     13  C   UNL     1     -45.509  17.777 -19.050  1.00  0.00     0.065 A 
ATOM     14  C   UNL     1     -47.202  17.856 -17.323  1.00  0.00     0.031 A 
ATOM     15  C   UNL     1     -45.985  18.971 -19.606  1.00  0.00     0.127 A 
ATOM     16  C   UNL     1     -47.684  19.052 -17.877  1.00  0.00     0.025 A 
ATOM     17  C   UNL     1     -45.072  14.965 -17.010  1.00  0.00     0.010 C 
BRANCH  14  18
ATOM     18  C   UNL     1     -47.915  17.352 -16.119  1.00  0.00     0.261 C 
ATOM     19  O   UNL     1     -48.306  16.204 -15.971  1.00  0.00    -0.298 OA
ENDBRANCH  14  18
BRANCH  15  20
ATOM     20  O   UNL     1     -45.442  19.576 -20.711  1.00  0.00    -0.496 OA
ATOM     21  C   UNL     1     -45.343  18.813 -21.906  1.00  0.00     0.278 C 
ENDBRANCH  15  20
ENDBRANCH   1  10
BRANCH   6  22
ATOM     22  N   UNL     1     -51.613  25.211 -21.155  1.00  0.00    -0.284 N 
ATOM     23  C   UNL     1     -52.796  25.252 -20.466  1.00  0.00     0.322 C 
ATOM     24  O   UNL     1     -53.154  24.520 -19.554  1.00  0.00    -0.248 OA
ATOM     25  N   UNL     1     -53.604  26.270 -20.935  1.00  0.00    -0.315 N 
ATOM     26  H   UNL     1     -51.519  25.733 -22.009  1.00  0.00     0.174 HD
ATOM     27  H   UNL     1     -53.125  27.112 -21.212  1.00  0.00     0.167 HD
BRANCH  25  28
ATOM     28  C   UNL     1     -54.875  26.498 -20.323  1.00  0.00     0.277 C 
BRANCH  28  29
ATOM     29  O   UNL     1     -54.615  27.041 -19.051  1.00  0.00    -0.376 OA
ATOM     30  H   UNL     1     -54.214  26.303 -18.553  1.00  0.00     0.212 HD
ENDBRANCH  28  29
ENDBRANCH  25  28
ENDBRANCH   6  22
TORSDOF 6
ENDMDL
