MODEL 1
REMARK minimizedAffinity -8.55098724
REMARK CNNscore 0.232480541
REMARK CNNaffinity 6.38889837
REMARK SMILES C#CCN(C)C(=O)c1cncc(-c2cnc3[nH]cc(-c4cc(C=O)c(C#C)cc4OC)c3c2)c1
REMARK SMILES IDX 8 1 9 2 10 3 11 4 12 5 34 6 6 7 7 8 4 9 5 10 3 11 2 12 1 13
REMARK SMILES IDX 13 14 14 15 33 16 15 17 32 18 16 19 19 20 17 21 18 22 20 24
REMARK SMILES IDX 21 25 29 26 22 27 28 28 25 29 26 30 27 31 30 32 31 33 23 34
REMARK SMILES IDX 24 35
REMARK H PARENT 17 23
ROOT
ATOM      1  C   UNL     1     -42.524  21.444   7.909  1.00  0.00     0.058 A 
ATOM      2  C   UNL     1     -43.119  22.642   8.271  1.00  0.00     0.124 A 
ATOM      3  N   UNL     1     -44.222  22.719   9.051  1.00  0.00    -0.263 NA
ATOM      4  C   UNL     1     -44.765  21.542   9.452  1.00  0.00     0.119 A 
ATOM      5  C   UNL     1     -44.272  20.277   9.121  1.00  0.00     0.002 A 
ATOM      6  C   UNL     1     -43.123  20.248   8.318  1.00  0.00     0.025 A 
ENDROOT
BRANCH   1   7
ATOM      7  C   UNL     1     -41.333  21.469   7.045  1.00  0.00     0.255 C 
ATOM      8  O   UNL     1     -40.648  20.449   7.013  1.00  0.00    -0.269 OA
BRANCH   7   9
ATOM      9  N   UNL     1     -41.035  22.622   6.323  1.00  0.00    -0.331 N 
ATOM     10  C   UNL     1     -40.327  23.782   6.852  1.00  0.00     0.148 C 
BRANCH   9  11
ATOM     11  C   UNL     1     -41.435  22.677   4.920  1.00  0.00     0.209 C 
ATOM     12  C   UNL     1     -40.312  23.111   4.074  1.00  0.00    -0.085 C 
ATOM     13  C   UNL     1     -39.396  23.463   3.381  1.00  0.00     0.006 C 
ENDBRANCH   9  11
ENDBRANCH   7   9
ENDBRANCH   1   7
BRANCH   5  14
ATOM     14  C   UNL     1     -44.919  19.045   9.592  1.00  0.00     0.002 A 
ATOM     15  C   UNL     1     -46.270  18.777   9.340  1.00  0.00     0.122 A 
ATOM     16  C   UNL     1     -44.205  18.077  10.317  1.00  0.00     0.023 A 
ATOM     17  N   UNL     1     -46.966  17.674   9.712  1.00  0.00    -0.238 NA
ATOM     18  C   UNL     1     -44.871  16.908  10.732  1.00  0.00     0.027 A 
ATOM     19  C   UNL     1     -46.214  16.793  10.395  1.00  0.00     0.137 A 
ATOM     20  C   UNL     1     -44.523  15.728  11.460  1.00  0.00     0.012 A 
ATOM     21  N   UNL     1     -46.674  15.603  10.885  1.00  0.00    -0.346 N 
ATOM     22  C   UNL     1     -45.664  14.948  11.543  1.00  0.00     0.094 A 
ATOM     23  H   UNL     1     -47.624  15.282  10.766  1.00  0.00     0.167 HD
BRANCH  20  24
ATOM     24  C   UNL     1     -43.252  15.341  12.059  1.00  0.00     0.027 A 
ATOM     25  C   UNL     1     -42.069  15.633  11.362  1.00  0.00     0.025 A 
ATOM     26  C   UNL     1     -43.186  14.676  13.299  1.00  0.00     0.128 A 
ATOM     27  C   UNL     1     -40.819  15.266  11.881  1.00  0.00     0.031 A 
ATOM     28  C   UNL     1     -41.934  14.313  13.811  1.00  0.00     0.065 A 
ATOM     29  C   UNL     1     -40.749  14.603  13.113  1.00  0.00     0.038 A 
ATOM     30  C   UNL     1     -39.516  14.192  13.719  1.00  0.00    -0.070 C 
ATOM     31  C   UNL     1     -38.490  13.843  14.236  1.00  0.00     0.010 C 
BRANCH  26  32
ATOM     32  O   UNL     1     -44.377  14.429  13.934  1.00  0.00    -0.496 OA
ATOM     33  C   UNL     1     -44.333  13.992  15.287  1.00  0.00     0.278 C 
ENDBRANCH  26  32
BRANCH  27  34
ATOM     34  C   UNL     1     -39.634  15.618  11.055  1.00  0.00     0.261 C 
ATOM     35  O   UNL     1     -39.258  14.994  10.074  1.00  0.00    -0.298 OA
ENDBRANCH  27  34
ENDBRANCH  20  24
ENDBRANCH   5  14
TORSDOF 7
ENDMDL
MODEL 2
REMARK minimizedAffinity -9.1475563
REMARK CNNscore 0.220362261
REMARK CNNaffinity 5.81060839
REMARK SMILES C#CCN(C)C(=O)c1cncc(-c2cnc3[nH]cc(-c4cc(C=O)c(C#C)cc4OC)c3c2)c1
REMARK SMILES IDX 8 1 9 2 10 3 11 4 12 5 34 6 6 7 7 8 4 9 5 10 3 11 2 12 1 13
REMARK SMILES IDX 13 14 14 15 33 16 15 17 32 18 16 19 19 20 17 21 18 22 20 24
REMARK SMILES IDX 21 25 29 26 22 27 28 28 25 29 26 30 27 31 30 32 31 33 23 34
REMARK SMILES IDX 24 35
REMARK H PARENT 17 23
ROOT
ATOM      1  C   UNL     1     -41.970  21.419   7.680  1.00  0.00     0.058 A 
ATOM      2  C   UNL     1     -42.762  22.343   8.342  1.00  0.00     0.124 A 
ATOM      3  N   UNL     1     -43.710  21.999   9.244  1.00  0.00    -0.263 NA
ATOM      4  C   UNL     1     -43.888  20.671   9.461  1.00  0.00     0.119 A 
ATOM      5  C   UNL     1     -43.172  19.652   8.827  1.00  0.00     0.002 A 
ATOM      6  C   UNL     1     -42.195  20.057   7.906  1.00  0.00     0.025 A 
ENDROOT
BRANCH   1   7
ATOM      7  C   UNL     1     -40.975  21.897   6.705  1.00  0.00     0.255 C 
ATOM      8  O   UNL     1     -40.053  21.133   6.433  1.00  0.00    -0.269 OA
BRANCH   7   9
ATOM      9  N   UNL     1     -41.115  23.168   6.152  1.00  0.00    -0.331 N 
ATOM     10  C   UNL     1     -41.163  24.412   6.912  1.00  0.00     0.148 C 
BRANCH   9  11
ATOM     11  C   UNL     1     -41.196  23.280   4.699  1.00  0.00     0.209 C 
ATOM     12  C   UNL     1     -39.986  23.916   4.156  1.00  0.00    -0.085 C 
ATOM     13  C   UNL     1     -38.997  24.433   3.710  1.00  0.00     0.006 C 
ENDBRANCH   9  11
ENDBRANCH   7   9
ENDBRANCH   1   7
BRANCH   5  14
ATOM     14  C   UNL     1     -43.426  18.234   9.112  1.00  0.00     0.002 A 
ATOM     15  C   UNL     1     -42.682  17.214   8.506  1.00  0.00     0.122 A 
ATOM     16  C   UNL     1     -44.427  17.838  10.014  1.00  0.00     0.023 A 
ATOM     17  N   UNL     1     -42.818  15.878   8.702  1.00  0.00    -0.238 NA
ATOM     18  C   UNL     1     -44.617  16.465  10.262  1.00  0.00     0.027 A 
ATOM     19  C   UNL     1     -43.791  15.580   9.581  1.00  0.00     0.137 A 
ATOM     20  C   UNL     1     -45.492  15.677  11.072  1.00  0.00     0.012 A 
ATOM     21  N   UNL     1     -44.132  14.310   9.952  1.00  0.00    -0.346 N 
ATOM     22  C   UNL     1     -45.169  14.349  10.850  1.00  0.00     0.094 A 
ATOM     23  H   UNL     1     -43.671  13.484   9.600  1.00  0.00     0.167 HD
BRANCH  20  24
ATOM     24  C   UNL     1     -46.561  16.093  11.971  1.00  0.00     0.027 A 
ATOM     25  C   UNL     1     -47.382  17.164  11.581  1.00  0.00     0.025 A 
ATOM     26  C   UNL     1     -46.779  15.462  13.211  1.00  0.00     0.128 A 
ATOM     27  C   UNL     1     -48.415  17.618  12.414  1.00  0.00     0.031 A 
ATOM     28  C   UNL     1     -47.812  15.922  14.037  1.00  0.00     0.065 A 
ATOM     29  C   UNL     1     -48.633  16.995  13.649  1.00  0.00     0.038 A 
ATOM     30  C   UNL     1     -49.664  17.393  14.563  1.00  0.00    -0.070 C 
ATOM     31  C   UNL     1     -50.523  17.718  15.336  1.00  0.00     0.010 C 
BRANCH  26  32
ATOM     32  O   UNL     1     -45.949  14.417  13.528  1.00  0.00    -0.496 OA
ATOM     33  C   UNL     1     -45.451  14.341  14.858  1.00  0.00     0.278 C 
ENDBRANCH  26  32
BRANCH  27  34
ATOM     34  C   UNL     1     -49.215  18.763  11.905  1.00  0.00     0.261 C 
ATOM     35  O   UNL     1     -48.871  19.934  11.961  1.00  0.00    -0.298 OA
ENDBRANCH  27  34
ENDBRANCH  20  24
ENDBRANCH   5  14
TORSDOF 7
ENDMDL
MODEL 3
REMARK minimizedAffinity -9.10478687
REMARK CNNscore 0.213860646
REMARK CNNaffinity 5.78438234
REMARK SMILES C#CCN(C)C(=O)c1cncc(-c2cnc3[nH]cc(-c4cc(C=O)c(C#C)cc4OC)c3c2)c1
REMARK SMILES IDX 8 1 9 2 10 3 11 4 12 5 34 6 6 7 7 8 4 9 5 10 3 11 2 12 1 13
REMARK SMILES IDX 13 14 14 15 33 16 15 17 32 18 16 19 19 20 17 21 18 22 20 24
REMARK SMILES IDX 21 25 29 26 22 27 28 28 25 29 26 30 27 31 30 32 31 33 23 34
REMARK SMILES IDX 24 35
REMARK H PARENT 17 23
ROOT
ATOM      1  C   UNL     1     -41.989  21.493   7.626  1.00  0.00     0.058 A 
ATOM      2  C   UNL     1     -42.763  22.434   8.285  1.00  0.00     0.124 A 
ATOM      3  N   UNL     1     -43.720  22.112   9.186  1.00  0.00    -0.263 NA
ATOM      4  C   UNL     1     -43.927  20.789   9.404  1.00  0.00     0.119 A 
ATOM      5  C   UNL     1     -43.231  19.753   8.774  1.00  0.00     0.002 A 
ATOM      6  C   UNL     1     -42.244  20.137   7.855  1.00  0.00     0.025 A 
ENDROOT
BRANCH   1   7
ATOM      7  C   UNL     1     -40.982  21.948   6.654  1.00  0.00     0.255 C 
ATOM      8  O   UNL     1     -40.083  21.159   6.375  1.00  0.00    -0.269 OA
BRANCH   7   9
ATOM      9  N   UNL     1     -41.086  23.226   6.109  1.00  0.00    -0.331 N 
ATOM     10  C   UNL     1     -41.125  24.464   6.878  1.00  0.00     0.148 C 
BRANCH   9  11
ATOM     11  C   UNL     1     -41.135  23.352   4.655  1.00  0.00     0.209 C 
ATOM     12  C   UNL     1     -39.895  23.955   4.142  1.00  0.00    -0.085 C 
ATOM     13  C   UNL     1     -38.883  24.445   3.720  1.00  0.00     0.006 C 
ENDBRANCH   9  11
ENDBRANCH   7   9
ENDBRANCH   1   7
BRANCH   5  14
ATOM     14  C   UNL     1     -43.515  18.341   9.061  1.00  0.00     0.002 A 
ATOM     15  C   UNL     1     -42.732  17.308   8.531  1.00  0.00     0.122 A 
ATOM     16  C   UNL     1     -44.586  17.965   9.887  1.00  0.00     0.023 A 
ATOM     17  N   UNL     1     -42.892  15.977   8.738  1.00  0.00    -0.238 NA
ATOM     18  C   UNL     1     -44.804  16.598  10.142  1.00  0.00     0.027 A 
ATOM     19  C   UNL     1     -43.932  15.698   9.542  1.00  0.00     0.137 A 
ATOM     20  C   UNL     1     -45.745  15.828  10.893  1.00  0.00     0.012 A 
ATOM     21  N   UNL     1     -44.310  14.436   9.906  1.00  0.00    -0.346 N 
ATOM     22  C   UNL     1     -45.414  14.494  10.718  1.00  0.00     0.094 A 
ATOM     23  H   UNL     1     -43.827  13.601   9.603  1.00  0.00     0.167 HD
BRANCH  20  24
ATOM     24  C   UNL     1     -46.879  16.263  11.698  1.00  0.00     0.027 A 
ATOM     25  C   UNL     1     -46.858  16.000  13.078  1.00  0.00     0.025 A 
ATOM     26  C   UNL     1     -47.986  16.921  11.130  1.00  0.00     0.128 A 
ATOM     27  C   UNL     1     -47.930  16.379  13.898  1.00  0.00     0.031 A 
ATOM     28  C   UNL     1     -49.053  17.296  11.956  1.00  0.00     0.065 A 
ATOM     29  C   UNL     1     -49.034  17.032  13.336  1.00  0.00     0.038 A 
ATOM     30  C   UNL     1     -50.173  17.455  14.099  1.00  0.00    -0.070 C 
ATOM     31  C   UNL     1     -51.131  17.814  14.726  1.00  0.00     0.010 C 
BRANCH  26  32
ATOM     32  O   UNL     1     -47.941  17.157   9.779  1.00  0.00    -0.496 OA
ATOM     33  C   UNL     1     -48.234  18.471   9.321  1.00  0.00     0.278 C 
ENDBRANCH  26  32
BRANCH  27  34
ATOM     34  C   UNL     1     -47.805  16.044  15.341  1.00  0.00     0.261 C 
ATOM     35  O   UNL     1     -47.472  16.832  16.214  1.00  0.00    -0.298 OA
ENDBRANCH  27  34
ENDBRANCH  20  24
ENDBRANCH   5  14
TORSDOF 7
ENDMDL
MODEL 4
REMARK minimizedAffinity -9.32722187
REMARK CNNscore 0.193855658
REMARK CNNaffinity 6.44735718
REMARK SMILES C#CCN(C)C(=O)c1cncc(-c2cnc3[nH]cc(-c4cc(C=O)c(C#C)cc4OC)c3c2)c1
REMARK SMILES IDX 8 1 9 2 10 3 11 4 12 5 34 6 6 7 7 8 4 9 5 10 3 11 2 12 1 13
REMARK SMILES IDX 13 14 14 15 33 16 15 17 32 18 16 19 19 20 17 21 18 22 20 24
REMARK SMILES IDX 21 25 29 26 22 27 28 28 25 29 26 30 27 31 30 32 31 33 23 34
REMARK SMILES IDX 24 35
REMARK H PARENT 17 23
ROOT
ATOM      1  C   UNL     1     -41.493  21.818   7.069  1.00  0.00     0.058 A 
ATOM      2  C   UNL     1     -41.929  23.044   7.542  1.00  0.00     0.124 A 
ATOM      3  N   UNL     1     -42.949  23.182   8.421  1.00  0.00    -0.263 NA
ATOM      4  C   UNL     1     -43.574  22.042   8.809  1.00  0.00     0.119 A 
ATOM      5  C   UNL     1     -43.243  20.756   8.372  1.00  0.00     0.002 A 
ATOM      6  C   UNL     1     -42.174  20.663   7.468  1.00  0.00     0.025 A 
ENDROOT
BRANCH   1   7
ATOM      7  C   UNL     1     -40.382  21.777   6.103  1.00  0.00     0.255 C 
ATOM      8  O   UNL     1     -39.569  20.864   6.229  1.00  0.00    -0.269 OA
BRANCH   7   9
ATOM      9  N   UNL     1     -40.298  22.755   5.115  1.00  0.00    -0.331 N 
ATOM     10  C   UNL     1     -41.439  23.394   4.470  1.00  0.00     0.148 C 
BRANCH   9  11
ATOM     11  C   UNL     1     -38.972  23.203   4.702  1.00  0.00     0.209 C 
ATOM     12  C   UNL     1     -39.052  24.493   4.000  1.00  0.00    -0.085 C 
ATOM     13  C   UNL     1     -39.115  25.548   3.427  1.00  0.00     0.006 C 
ENDBRANCH   9  11
ENDBRANCH   7   9
ENDBRANCH   1   7
BRANCH   5  14
ATOM     14  C   UNL     1     -43.970  19.568   8.836  1.00  0.00     0.002 A 
ATOM     15  C   UNL     1     -43.346  18.320   8.956  1.00  0.00     0.122 A 
ATOM     16  C   UNL     1     -45.328  19.633   9.185  1.00  0.00     0.023 A 
ATOM     17  N   UNL     1     -43.911  17.163   9.384  1.00  0.00    -0.238 NA
ATOM     18  C   UNL     1     -45.973  18.467   9.638  1.00  0.00     0.027 A 
ATOM     19  C   UNL     1     -45.209  17.308   9.704  1.00  0.00     0.137 A 
ATOM     20  C   UNL     1     -47.290  18.121  10.072  1.00  0.00     0.012 A 
ATOM     21  N   UNL     1     -46.009  16.298  10.158  1.00  0.00    -0.346 N 
ATOM     22  C   UNL     1     -47.278  16.770  10.378  1.00  0.00     0.094 A 
ATOM     23  H   UNL     1     -45.685  15.352  10.300  1.00  0.00     0.167 HD
BRANCH  20  24
ATOM     24  C   UNL     1     -48.485  18.947  10.183  1.00  0.00     0.027 A 
ATOM     25  C   UNL     1     -48.501  20.189   9.526  1.00  0.00     0.025 A 
ATOM     26  C   UNL     1     -49.604  18.541  10.935  1.00  0.00     0.128 A 
ATOM     27  C   UNL     1     -49.617  21.034   9.613  1.00  0.00     0.031 A 
ATOM     28  C   UNL     1     -50.714  19.391  11.017  1.00  0.00     0.065 A 
ATOM     29  C   UNL     1     -50.730  20.635  10.362  1.00  0.00     0.038 A 
ATOM     30  C   UNL     1     -51.913  21.434  10.506  1.00  0.00    -0.070 C 
ATOM     31  C   UNL     1     -52.907  22.094  10.634  1.00  0.00     0.010 C 
BRANCH  26  32
ATOM     32  O   UNL     1     -49.529  17.314  11.543  1.00  0.00    -0.496 OA
ATOM     33  C   UNL     1     -50.591  16.933  12.410  1.00  0.00     0.278 C 
ENDBRANCH  26  32
BRANCH  27  34
ATOM     34  C   UNL     1     -49.521  22.327   8.886  1.00  0.00     0.261 C 
ATOM     35  O   UNL     1     -49.640  23.428   9.402  1.00  0.00    -0.298 OA
ENDBRANCH  27  34
ENDBRANCH  20  24
ENDBRANCH   5  14
TORSDOF 7
ENDMDL
MODEL 5
REMARK minimizedAffinity -8.4293642
REMARK CNNscore 0.172392979
REMARK CNNaffinity 5.97442627
REMARK SMILES C#CCN(C)C(=O)c1cncc(-c2cnc3[nH]cc(-c4cc(C=O)c(C#C)cc4OC)c3c2)c1
REMARK SMILES IDX 8 1 9 2 10 3 11 4 12 5 34 6 6 7 7 8 4 9 5 10 3 11 2 12 1 13
REMARK SMILES IDX 13 14 14 15 33 16 15 17 32 18 16 19 19 20 17 21 18 22 20 24
REMARK SMILES IDX 21 25 29 26 22 27 28 28 25 29 26 30 27 31 30 32 31 33 23 34
REMARK SMILES IDX 24 35
REMARK H PARENT 17 23
ROOT
ATOM      1  C   UNL     1     -42.342  21.349   7.871  1.00  0.00     0.058 A 
ATOM      2  C   UNL     1     -42.954  22.524   8.274  1.00  0.00     0.124 A 
ATOM      3  N   UNL     1     -44.022  22.560   9.104  1.00  0.00    -0.263 NA
ATOM      4  C   UNL     1     -44.511  21.363   9.515  1.00  0.00     0.119 A 
ATOM      5  C   UNL     1     -43.997  20.116   9.147  1.00  0.00     0.002 A 
ATOM      6  C   UNL     1     -42.885  20.130   8.292  1.00  0.00     0.025 A 
ENDROOT
BRANCH   1   7
ATOM      7  C   UNL     1     -41.192  21.419   6.954  1.00  0.00     0.255 C 
ATOM      8  O   UNL     1     -40.454  20.437   6.912  1.00  0.00    -0.269 OA
BRANCH   7   9
ATOM      9  N   UNL     1     -40.991  22.569   6.195  1.00  0.00    -0.331 N 
ATOM     10  C   UNL     1     -40.213  23.727   6.621  1.00  0.00     0.148 C 
BRANCH   9  11
ATOM     11  C   UNL     1     -41.577  22.624   4.860  1.00  0.00     0.209 C 
ATOM     12  C   UNL     1     -41.248  23.895   4.197  1.00  0.00    -0.085 C 
ATOM     13  C   UNL     1     -40.978  24.932   3.653  1.00  0.00     0.006 C 
ENDBRANCH   9  11
ENDBRANCH   7   9
ENDBRANCH   1   7
BRANCH   5  14
ATOM     14  C   UNL     1     -44.585  18.861   9.631  1.00  0.00     0.002 A 
ATOM     15  C   UNL     1     -45.947  18.574   9.474  1.00  0.00     0.122 A 
ATOM     16  C   UNL     1     -43.802  17.888  10.273  1.00  0.00     0.023 A 
ATOM     17  N   UNL     1     -46.593  17.448   9.867  1.00  0.00    -0.238 NA
ATOM     18  C   UNL     1     -44.414  16.696  10.705  1.00  0.00     0.027 A 
ATOM     19  C   UNL     1     -45.777  16.565  10.467  1.00  0.00     0.137 A 
ATOM     20  C   UNL     1     -43.992  15.505  11.372  1.00  0.00     0.012 A 
ATOM     21  N   UNL     1     -46.178  15.354  10.958  1.00  0.00    -0.346 N 
ATOM     22  C   UNL     1     -45.110  14.701  11.520  1.00  0.00     0.094 A 
ATOM     23  H   UNL     1     -47.129  15.017  10.902  1.00  0.00     0.167 HD
BRANCH  20  24
ATOM     24  C   UNL     1     -42.674  15.126  11.864  1.00  0.00     0.027 A 
ATOM     25  C   UNL     1     -42.309  15.514  13.163  1.00  0.00     0.025 A 
ATOM     26  C   UNL     1     -41.763  14.401  11.070  1.00  0.00     0.128 A 
ATOM     27  C   UNL     1     -41.046  15.193  13.682  1.00  0.00     0.031 A 
ATOM     28  C   UNL     1     -40.504  14.086  11.595  1.00  0.00     0.065 A 
ATOM     29  C   UNL     1     -40.137  14.474  12.895  1.00  0.00     0.038 A 
ATOM     30  C   UNL     1     -38.826  14.103  13.343  1.00  0.00    -0.070 C 
ATOM     31  C   UNL     1     -37.726  13.788  13.706  1.00  0.00     0.010 C 
BRANCH  26  32
ATOM     32  O   UNL     1     -42.184  14.045   9.814  1.00  0.00    -0.496 OA
ATOM     33  C   UNL     1     -42.602  12.701   9.607  1.00  0.00     0.278 C 
ENDBRANCH  26  32
BRANCH  27  34
ATOM     34  C   UNL     1     -40.764  15.660  15.064  1.00  0.00     0.261 C 
ATOM     35  O   UNL     1     -40.889  16.812  15.450  1.00  0.00    -0.298 OA
ENDBRANCH  27  34
ENDBRANCH  20  24
ENDBRANCH   5  14
TORSDOF 7
ENDMDL
MODEL 6
REMARK minimizedAffinity -7.57357121
REMARK CNNscore 0.168403745
REMARK CNNaffinity 6.35478735
REMARK SMILES C#CCN(C)C(=O)c1cncc(-c2cnc3[nH]cc(-c4cc(C=O)c(C#C)cc4OC)c3c2)c1
REMARK SMILES IDX 8 1 9 2 10 3 11 4 12 5 34 6 6 7 7 8 4 9 5 10 3 11 2 12 1 13
REMARK SMILES IDX 13 14 14 15 33 16 15 17 32 18 16 19 19 20 17 21 18 22 20 24
REMARK SMILES IDX 21 25 29 26 22 27 28 28 25 29 26 30 27 31 30 32 31 33 23 34
REMARK SMILES IDX 24 35
REMARK H PARENT 17 23
ROOT
ATOM      1  C   UNL     1     -43.230  20.391   8.606  1.00  0.00     0.058 A 
ATOM      2  C   UNL     1     -42.335  19.387   8.275  1.00  0.00     0.124 A 
ATOM      3  N   UNL     1     -42.600  18.070   8.440  1.00  0.00    -0.263 NA
ATOM      4  C   UNL     1     -43.799  17.756   8.992  1.00  0.00     0.119 A 
ATOM      5  C   UNL     1     -44.764  18.684   9.396  1.00  0.00     0.002 A 
ATOM      6  C   UNL     1     -44.448  20.036   9.197  1.00  0.00     0.025 A 
ENDROOT
BRANCH   1   7
ATOM      7  C   UNL     1     -42.840  21.795   8.399  1.00  0.00     0.255 C 
ATOM      8  O   UNL     1     -43.488  22.647   9.002  1.00  0.00    -0.269 OA
BRANCH   7   9
ATOM      9  N   UNL     1     -41.781  22.092   7.544  1.00  0.00    -0.331 N 
ATOM     10  C   UNL     1     -40.841  21.116   7.005  1.00  0.00     0.148 C 
BRANCH   9  11
ATOM     11  C   UNL     1     -41.601  23.479   7.128  1.00  0.00     0.209 C 
ATOM     12  C   UNL     1     -40.938  23.549   5.817  1.00  0.00    -0.085 C 
ATOM     13  C   UNL     1     -40.397  23.608   4.745  1.00  0.00     0.006 C 
ENDBRANCH   9  11
ENDBRANCH   7   9
ENDBRANCH   1   7
BRANCH   5  14
ATOM     14  C   UNL     1     -46.040  18.267   9.990  1.00  0.00     0.002 A 
ATOM     15  C   UNL     1     -46.923  19.189  10.567  1.00  0.00     0.122 A 
ATOM     16  C   UNL     1     -46.433  16.919  10.003  1.00  0.00     0.023 A 
ATOM     17  N   UNL     1     -48.128  18.921  11.130  1.00  0.00    -0.238 NA
ATOM     18  C   UNL     1     -47.674  16.576  10.573  1.00  0.00     0.027 A 
ATOM     19  C   UNL     1     -48.435  17.613  11.099  1.00  0.00     0.137 A 
ATOM     20  C   UNL     1     -48.414  15.371  10.781  1.00  0.00     0.012 A 
ATOM     21  N   UNL     1     -49.588  17.079  11.602  1.00  0.00    -0.346 N 
ATOM     22  C   UNL     1     -49.588  15.718  11.427  1.00  0.00     0.094 A 
ATOM     23  H   UNL     1     -50.314  17.631  12.036  1.00  0.00     0.167 HD
BRANCH  20  24
ATOM     24  C   UNL     1     -48.075  13.995  10.439  1.00  0.00     0.027 A 
ATOM     25  C   UNL     1     -49.028  13.224   9.754  1.00  0.00     0.025 A 
ATOM     26  C   UNL     1     -46.835  13.426  10.786  1.00  0.00     0.128 A 
ATOM     27  C   UNL     1     -48.764  11.889   9.415  1.00  0.00     0.031 A 
ATOM     28  C   UNL     1     -46.579  12.092  10.445  1.00  0.00     0.065 A 
ATOM     29  C   UNL     1     -47.533  11.318   9.761  1.00  0.00     0.038 A 
ATOM     30  C   UNL     1     -47.178   9.962   9.455  1.00  0.00    -0.070 C 
ATOM     31  C   UNL     1     -46.870   8.830   9.205  1.00  0.00     0.010 C 
BRANCH  26  32
ATOM     32  O   UNL     1     -45.944  14.234  11.445  1.00  0.00    -0.496 OA
ATOM     33  C   UNL     1     -44.620  13.752  11.637  1.00  0.00     0.278 C 
ENDBRANCH  26  32
BRANCH  27  34
ATOM     34  C   UNL     1     -49.847  11.165   8.699  1.00  0.00     0.261 C 
ATOM     35  O   UNL     1     -50.202  11.398   7.553  1.00  0.00    -0.298 OA
ENDBRANCH  27  34
ENDBRANCH  20  24
ENDBRANCH   5  14
TORSDOF 7
ENDMDL
MODEL 7
REMARK minimizedAffinity -8.07940865
REMARK CNNscore 0.159285933
REMARK CNNaffinity 5.6971755
REMARK SMILES C#CCN(C)C(=O)c1cncc(-c2cnc3[nH]cc(-c4cc(C=O)c(C#C)cc4OC)c3c2)c1
REMARK SMILES IDX 8 1 9 2 10 3 11 4 12 5 34 6 6 7 7 8 4 9 5 10 3 11 2 12 1 13
REMARK SMILES IDX 13 14 14 15 33 16 15 17 32 18 16 19 19 20 17 21 18 22 20 24
REMARK SMILES IDX 21 25 29 26 22 27 28 28 25 29 26 30 27 31 30 32 31 33 23 34
REMARK SMILES IDX 24 35
REMARK H PARENT 17 23
ROOT
ATOM      1  C   UNL     1     -41.954  28.980 -19.080  1.00  0.00     0.058 A 
ATOM      2  C   UNL     1     -42.047  27.718 -19.644  1.00  0.00     0.124 A 
ATOM      3  N   UNL     1     -42.351  27.505 -20.945  1.00  0.00    -0.263 NA
ATOM      4  C   UNL     1     -42.606  28.606 -21.697  1.00  0.00     0.119 A 
ATOM      5  C   UNL     1     -42.575  29.923 -21.228  1.00  0.00     0.002 A 
ATOM      6  C   UNL     1     -42.247  30.094 -19.875  1.00  0.00     0.025 A 
ENDROOT
BRANCH   1   7
ATOM      7  C   UNL     1     -41.629  29.103 -17.649  1.00  0.00     0.255 C 
ATOM      8  O   UNL     1     -42.289  29.909 -16.997  1.00  0.00    -0.269 OA
BRANCH   7   9
ATOM      9  N   UNL     1     -40.608  28.324 -17.110  1.00  0.00    -0.331 N 
ATOM     10  C   UNL     1     -39.251  28.788 -16.847  1.00  0.00     0.148 C 
BRANCH   9  11
ATOM     11  C   UNL     1     -40.912  26.942 -16.753  1.00  0.00     0.209 C 
ATOM     12  C   UNL     1     -39.822  26.045 -17.166  1.00  0.00    -0.085 C 
ATOM     13  C   UNL     1     -38.932  25.310 -17.500  1.00  0.00     0.006 C 
ENDBRANCH   9  11
ENDBRANCH   7   9
ENDBRANCH   1   7
BRANCH   5  14
ATOM     14  C   UNL     1     -42.866  31.065 -22.104  1.00  0.00     0.002 A 
ATOM     15  C   UNL     1     -43.609  30.921 -23.283  1.00  0.00     0.122 A 
ATOM     16  C   UNL     1     -42.414  32.357 -21.794  1.00  0.00     0.023 A 
ATOM     17  N   UNL     1     -43.949  31.901 -24.157  1.00  0.00    -0.238 NA
ATOM     18  C   UNL     1     -42.734  33.419 -22.661  1.00  0.00     0.027 A 
ATOM     19  C   UNL     1     -43.485  33.107 -23.789  1.00  0.00     0.137 A 
ATOM     20  C   UNL     1     -42.476  34.823 -22.709  1.00  0.00     0.012 A 
ATOM     21  N   UNL     1     -43.685  34.260 -24.495  1.00  0.00    -0.346 N 
ATOM     22  C   UNL     1     -43.072  35.310 -23.860  1.00  0.00     0.094 A 
ATOM     23  H   UNL     1     -44.211  34.300 -25.357  1.00  0.00     0.167 HD
BRANCH  20  24
ATOM     24  C   UNL     1     -41.724  35.667 -21.789  1.00  0.00     0.027 A 
ATOM     25  C   UNL     1     -42.435  36.400 -20.824  1.00  0.00     0.025 A 
ATOM     26  C   UNL     1     -40.321  35.773 -21.853  1.00  0.00     0.128 A 
ATOM     27  C   UNL     1     -41.765  37.242 -19.924  1.00  0.00     0.031 A 
ATOM     28  C   UNL     1     -39.661  36.617 -20.951  1.00  0.00     0.065 A 
ATOM     29  C   UNL     1     -40.371  37.353 -19.986  1.00  0.00     0.038 A 
ATOM     30  C   UNL     1     -39.605  38.189 -19.108  1.00  0.00    -0.070 C 
ATOM     31  C   UNL     1     -38.954  38.885 -18.378  1.00  0.00     0.010 C 
BRANCH  26  32
ATOM     32  O   UNL     1     -39.687  35.025 -22.811  1.00  0.00    -0.496 OA
ATOM     33  C   UNL     1     -38.363  35.394 -23.177  1.00  0.00     0.278 C 
ENDBRANCH  26  32
BRANCH  27  34
ATOM     34  C   UNL     1     -42.617  37.976 -18.951  1.00  0.00     0.261 C 
ATOM     35  O   UNL     1     -43.199  37.462 -18.008  1.00  0.00    -0.298 OA
ENDBRANCH  27  34
ENDBRANCH  20  24
ENDBRANCH   5  14
TORSDOF 7
ENDMDL
MODEL 8
REMARK minimizedAffinity -8.21205902
REMARK CNNscore 0.15806596
REMARK CNNaffinity 5.59044886
REMARK SMILES C#CCN(C)C(=O)c1cncc(-c2cnc3[nH]cc(-c4cc(C=O)c(C#C)cc4OC)c3c2)c1
REMARK SMILES IDX 8 1 9 2 10 3 11 4 12 5 34 6 6 7 7 8 4 9 5 10 3 11 2 12 1 13
REMARK SMILES IDX 13 14 14 15 33 16 15 17 32 18 16 19 19 20 17 21 18 22 20 24
REMARK SMILES IDX 21 25 29 26 22 27 28 28 25 29 26 30 27 31 30 32 31 33 23 34
REMARK SMILES IDX 24 35
REMARK H PARENT 17 23
ROOT
ATOM      1  C   UNL     1     -41.902  28.773 -18.897  1.00  0.00     0.058 A 
ATOM      2  C   UNL     1     -41.997  27.495 -19.424  1.00  0.00     0.124 A 
ATOM      3  N   UNL     1     -42.328  27.243 -20.712  1.00  0.00    -0.263 NA
ATOM      4  C   UNL     1     -42.607  28.321 -21.488  1.00  0.00     0.119 A 
ATOM      5  C   UNL     1     -42.576  29.650 -21.057  1.00  0.00     0.002 A 
ATOM      6  C   UNL     1     -42.221  29.861 -19.717  1.00  0.00     0.025 A 
ENDROOT
BRANCH   1   7
ATOM      7  C   UNL     1     -41.548  28.938 -17.478  1.00  0.00     0.255 C 
ATOM      8  O   UNL     1     -42.252  29.695 -16.814  1.00  0.00    -0.269 OA
BRANCH   7   9
ATOM      9  N   UNL     1     -40.453  28.249 -16.962  1.00  0.00    -0.331 N 
ATOM     10  C   UNL     1     -39.110  28.799 -16.819  1.00  0.00     0.148 C 
BRANCH   9  11
ATOM     11  C   UNL     1     -40.656  26.879 -16.501  1.00  0.00     0.209 C 
ATOM     12  C   UNL     1     -39.661  25.975 -17.097  1.00  0.00    -0.085 C 
ATOM     13  C   UNL     1     -38.848  25.235 -17.582  1.00  0.00     0.006 C 
ENDBRANCH   9  11
ENDBRANCH   7   9
ENDBRANCH   1   7
BRANCH   5  14
ATOM     14  C   UNL     1     -42.895  30.765 -21.958  1.00  0.00     0.002 A 
ATOM     15  C   UNL     1     -43.654  30.581 -23.121  1.00  0.00     0.122 A 
ATOM     16  C   UNL     1     -42.453  32.070 -21.689  1.00  0.00     0.023 A 
ATOM     17  N   UNL     1     -44.018  31.534 -24.015  1.00  0.00    -0.238 NA
ATOM     18  C   UNL     1     -42.800  33.105 -22.579  1.00  0.00     0.027 A 
ATOM     19  C   UNL     1     -43.564  32.755 -23.686  1.00  0.00     0.137 A 
ATOM     20  C   UNL     1     -42.559  34.511 -22.667  1.00  0.00     0.012 A 
ATOM     21  N   UNL     1     -43.789  33.886 -24.420  1.00  0.00    -0.346 N 
ATOM     22  C   UNL     1     -43.179  34.959 -23.822  1.00  0.00     0.094 A 
ATOM     23  H   UNL     1     -44.328  33.897 -25.274  1.00  0.00     0.167 HD
BRANCH  20  24
ATOM     24  C   UNL     1     -41.804  35.387 -21.781  1.00  0.00     0.027 A 
ATOM     25  C   UNL     1     -40.446  35.609 -22.061  1.00  0.00     0.025 A 
ATOM     26  C   UNL     1     -42.395  35.998 -20.658  1.00  0.00     0.128 A 
ATOM     27  C   UNL     1     -39.666  36.428 -21.232  1.00  0.00     0.031 A 
ATOM     28  C   UNL     1     -41.609  36.815 -19.836  1.00  0.00     0.065 A 
ATOM     29  C   UNL     1     -40.248  37.035 -20.113  1.00  0.00     0.038 A 
ATOM     30  C   UNL     1     -39.528  37.888 -19.212  1.00  0.00    -0.070 C 
ATOM     31  C   UNL     1     -38.934  38.602 -18.451  1.00  0.00     0.010 C 
BRANCH  26  32
ATOM     32  O   UNL     1     -43.727  35.750 -20.447  1.00  0.00    -0.496 OA
ATOM     33  C   UNL     1     -44.211  35.804 -19.111  1.00  0.00     0.278 C 
ENDBRANCH  26  32
BRANCH  27  34
ATOM     34  C   UNL     1     -38.239  36.586 -21.618  1.00  0.00     0.261 C 
ATOM     35  O   UNL     1     -37.499  35.669 -21.946  1.00  0.00    -0.298 OA
ENDBRANCH  27  34
ENDBRANCH  20  24
ENDBRANCH   5  14
TORSDOF 7
ENDMDL
MODEL 9
REMARK minimizedAffinity -7.29334974
REMARK CNNscore 0.15419367
REMARK CNNaffinity 5.77901411
REMARK SMILES C#CCN(C)C(=O)c1cncc(-c2cnc3[nH]cc(-c4cc(C=O)c(C#C)cc4OC)c3c2)c1
REMARK SMILES IDX 8 1 9 2 10 3 11 4 12 5 34 6 6 7 7 8 4 9 5 10 3 11 2 12 1 13
REMARK SMILES IDX 13 14 14 15 33 16 15 17 32 18 16 19 19 20 17 21 18 22 20 24
REMARK SMILES IDX 21 25 29 26 22 27 28 28 25 29 26 30 27 31 30 32 31 33 23 34
REMARK SMILES IDX 24 35
REMARK H PARENT 17 23
ROOT
ATOM      1  C   UNL     1     -42.935  28.470 -20.852  1.00  0.00     0.058 A 
ATOM      2  C   UNL     1     -44.147  27.884 -20.526  1.00  0.00     0.124 A 
ATOM      3  N   UNL     1     -45.339  28.346 -20.971  1.00  0.00    -0.263 NA
ATOM      4  C   UNL     1     -45.308  29.460 -21.745  1.00  0.00     0.119 A 
ATOM      5  C   UNL     1     -44.149  30.152 -22.109  1.00  0.00     0.002 A 
ATOM      6  C   UNL     1     -42.938  29.632 -21.631  1.00  0.00     0.025 A 
ENDROOT
BRANCH   1   7
ATOM      7  C   UNL     1     -41.694  27.897 -20.304  1.00  0.00     0.255 C 
ATOM      8  O   UNL     1     -40.778  27.695 -21.098  1.00  0.00    -0.269 OA
BRANCH   7   9
ATOM      9  N   UNL     1     -41.615  27.610 -18.944  1.00  0.00    -0.331 N 
ATOM     10  C   UNL     1     -41.614  26.269 -18.370  1.00  0.00     0.148 C 
BRANCH   9  11
ATOM     11  C   UNL     1     -41.498  28.726 -18.011  1.00  0.00     0.209 C 
ATOM     12  C   UNL     1     -40.234  28.650 -17.262  1.00  0.00    -0.085 C 
ATOM     13  C   UNL     1     -39.201  28.591 -16.651  1.00  0.00     0.006 C 
ENDBRANCH   9  11
ENDBRANCH   7   9
ENDBRANCH   1   7
BRANCH   5  14
ATOM     14  C   UNL     1     -44.197  31.356 -22.949  1.00  0.00     0.002 A 
ATOM     15  C   UNL     1     -45.071  31.462 -24.038  1.00  0.00     0.122 A 
ATOM     16  C   UNL     1     -43.367  32.459 -22.693  1.00  0.00     0.023 A 
ATOM     17  N   UNL     1     -45.210  32.524 -24.871  1.00  0.00    -0.238 NA
ATOM     18  C   UNL     1     -43.464  33.593 -23.521  1.00  0.00     0.027 A 
ATOM     19  C   UNL     1     -44.387  33.540 -24.557  1.00  0.00     0.137 A 
ATOM     20  C   UNL     1     -42.825  34.869 -23.598  1.00  0.00     0.012 A 
ATOM     21  N   UNL     1     -44.327  34.723 -25.239  1.00  0.00    -0.346 N 
ATOM     22  C   UNL     1     -43.378  35.538 -24.677  1.00  0.00     0.094 A 
ATOM     23  H   UNL     1     -44.909  34.935 -26.038  1.00  0.00     0.167 HD
BRANCH  20  24
ATOM     24  C   UNL     1     -41.772  35.439 -22.767  1.00  0.00     0.027 A 
ATOM     25  C   UNL     1     -40.444  35.338 -23.211  1.00  0.00     0.025 A 
ATOM     26  C   UNL     1     -42.052  36.070 -21.539  1.00  0.00     0.128 A 
ATOM     27  C   UNL     1     -39.388  35.852 -22.444  1.00  0.00     0.031 A 
ATOM     28  C   UNL     1     -40.992  36.580 -20.779  1.00  0.00     0.065 A 
ATOM     29  C   UNL     1     -39.662  36.477 -21.222  1.00  0.00     0.038 A 
ATOM     30  C   UNL     1     -38.646  37.031 -20.373  1.00  0.00    -0.070 C 
ATOM     31  C   UNL     1     -37.805  37.497 -19.655  1.00  0.00     0.010 C 
BRANCH  26  32
ATOM     32  O   UNL     1     -43.370  36.145 -21.168  1.00  0.00    -0.496 OA
ATOM     33  C   UNL     1     -44.014  37.411 -21.248  1.00  0.00     0.278 C 
ENDBRANCH  26  32
BRANCH  27  34
ATOM     34  C   UNL     1     -38.022  35.681 -23.006  1.00  0.00     0.261 C 
ATOM     35  O   UNL     1     -37.773  35.176 -24.091  1.00  0.00    -0.298 OA
ENDBRANCH  27  34
ENDBRANCH  20  24
ENDBRANCH   5  14
TORSDOF 7
ENDMDL
