MODEL 1
REMARK minimizedAffinity -8.30314827
REMARK CNNscore 0.853910446
REMARK CNNaffinity 6.32627487
REMARK SMILES CC(=O)Nc1ccc(-n2nc3ccc(N)nc3n2)cc1
REMARK SMILES IDX 9 1 10 2 11 3 12 4 13 5 14 6 16 7 17 8 18 9 8 10 5 11 6 12
REMARK SMILES IDX 20 13 7 14 19 15 4 16 2 17 3 18 1 19 15 21
REMARK H PARENT 4 20 15 22 15 23
ROOT
ATOM      1  N   UNL     1      51.950 -34.819  15.240  1.00  0.00    -0.149 N 
ATOM      2  N   UNL     1      53.083 -34.069  15.180  1.00  0.00    -0.146 NA
ATOM      3  C   UNL     1      53.543 -34.120  16.439  1.00  0.00     0.132 A 
ATOM      4  C   UNL     1      54.685 -33.531  16.996  1.00  0.00     0.038 A 
ATOM      5  C   UNL     1      54.828 -33.820  18.359  1.00  0.00     0.049 A 
ATOM      6  C   UNL     1      53.899 -34.631  19.053  1.00  0.00     0.126 A 
ATOM      7  N   UNL     1      52.789 -35.201  18.530  1.00  0.00    -0.208 NA
ATOM      8  C   UNL     1      52.628 -34.933  17.209  1.00  0.00     0.204 A 
ATOM      9  N   UNL     1      51.636 -35.368  16.437  1.00  0.00    -0.128 NA
ENDROOT
BRANCH   1  10
ATOM     10  C   UNL     1      51.133 -35.024  14.094  1.00  0.00     0.086 A 
ATOM     11  C   UNL     1      49.511 -35.432  11.826  1.00  0.00     0.041 A 
ATOM     12  C   UNL     1      50.681 -34.664  11.740  1.00  0.00     0.028 A 
ATOM     13  C   UNL     1      49.162 -35.992  13.056  1.00  0.00     0.028 A 
ATOM     14  C   UNL     1      51.489 -34.459  12.864  1.00  0.00     0.032 A 
ATOM     15  C   UNL     1      49.966 -35.792  14.186  1.00  0.00     0.032 A 
BRANCH  11  16
ATOM     16  N   UNL     1      48.757 -35.586  10.645  1.00  0.00    -0.326 N 
ATOM     17  C   UNL     1      49.096 -36.312   9.517  1.00  0.00     0.221 C 
ATOM     18  O   UNL     1      50.128 -36.944   9.327  1.00  0.00    -0.275 OA
ATOM     19  C   UNL     1      48.032 -36.234   8.449  1.00  0.00     0.114 C 
ATOM     20  H   UNL     1      47.869 -35.100  10.622  1.00  0.00     0.169 HD
ENDBRANCH  11  16
ENDBRANCH   1  10
BRANCH   6  21
ATOM     21  N   UNL     1      54.102 -34.851  20.420  1.00  0.00    -0.384 N 
ATOM     22  H   UNL     1      55.023 -35.228  20.611  1.00  0.00     0.158 HD
ATOM     23  H   UNL     1      53.365 -35.478  20.738  1.00  0.00     0.158 HD
ENDBRANCH   6  21
TORSDOF 3
ENDMDL
MODEL 2
REMARK minimizedAffinity -8.51887608
REMARK CNNscore 0.84174329
REMARK CNNaffinity 6.6478858
REMARK SMILES CC(=O)Nc1ccc(-n2nc3ccc(N)nc3n2)cc1
REMARK SMILES IDX 9 1 10 2 11 3 12 4 13 5 14 6 16 7 17 8 18 9 8 10 5 11 6 12
REMARK SMILES IDX 20 13 7 14 19 15 4 16 2 17 3 18 1 19 15 21
REMARK H PARENT 4 20 15 22 15 23
ROOT
ATOM      1  N   UNL     1      53.283 -33.989  16.946  1.00  0.00    -0.149 N 
ATOM      2  N   UNL     1      53.571 -33.604  15.674  1.00  0.00    -0.146 NA
ATOM      3  C   UNL     1      52.576 -34.155  14.962  1.00  0.00     0.132 A 
ATOM      4  C   UNL     1      52.334 -34.109  13.583  1.00  0.00     0.038 A 
ATOM      5  C   UNL     1      51.182 -34.815  13.216  1.00  0.00     0.049 A 
ATOM      6  C   UNL     1      50.376 -35.481  14.171  1.00  0.00     0.126 A 
ATOM      7  N   UNL     1      50.601 -35.538  15.504  1.00  0.00    -0.208 NA
ATOM      8  C   UNL     1      51.715 -34.862  15.884  1.00  0.00     0.204 A 
ATOM      9  N   UNL     1      52.173 -34.742  17.127  1.00  0.00    -0.128 NA
ENDROOT
BRANCH   1  10
ATOM     10  C   UNL     1      54.110 -33.613  18.041  1.00  0.00     0.086 A 
ATOM     11  C   UNL     1      55.746 -32.872  20.212  1.00  0.00     0.041 A 
ATOM     12  C   UNL     1      55.923 -32.288  18.951  1.00  0.00     0.028 A 
ATOM     13  C   UNL     1      54.743 -33.830  20.375  1.00  0.00     0.028 A 
ATOM     14  C   UNL     1      55.113 -32.653  17.869  1.00  0.00     0.032 A 
ATOM     15  C   UNL     1      53.928 -34.201  19.299  1.00  0.00     0.032 A 
BRANCH  11  16
ATOM     16  N   UNL     1      56.607 -32.447  21.244  1.00  0.00    -0.326 N 
ATOM     17  C   UNL     1      56.253 -31.953  22.487  1.00  0.00     0.221 C 
ATOM     18  O   UNL     1      55.119 -31.775  22.916  1.00  0.00    -0.275 OA
ATOM     19  C   UNL     1      57.458 -31.594  23.321  1.00  0.00     0.114 C 
ATOM     20  H   UNL     1      57.597 -32.503  21.044  1.00  0.00     0.169 HD
ENDBRANCH  11  16
ENDBRANCH   1  10
BRANCH   6  21
ATOM     21  N   UNL     1      49.255 -36.183  13.718  1.00  0.00    -0.384 N 
ATOM     22  H   UNL     1      48.636 -35.599  13.167  1.00  0.00     0.158 HD
ATOM     23  H   UNL     1      48.783 -36.561  14.538  1.00  0.00     0.158 HD
ENDBRANCH   6  21
TORSDOF 3
ENDMDL
MODEL 3
REMARK minimizedAffinity -8.42344761
REMARK CNNscore 0.744955182
REMARK CNNaffinity 6.33069086
REMARK SMILES CC(=O)Nc1ccc(-n2nc3ccc(N)nc3n2)cc1
REMARK SMILES IDX 9 1 10 2 11 3 12 4 13 5 14 6 16 7 17 8 18 9 8 10 5 11 6 12
REMARK SMILES IDX 20 13 7 14 19 15 4 16 2 17 3 18 1 19 15 21
REMARK H PARENT 4 20 15 22 15 23
ROOT
ATOM      1  N   UNL     1      52.267 -34.675  15.525  1.00  0.00    -0.149 N 
ATOM      2  N   UNL     1      53.368 -33.877  15.476  1.00  0.00    -0.146 NA
ATOM      3  C   UNL     1      53.843 -33.945  16.729  1.00  0.00     0.132 A 
ATOM      4  C   UNL     1      54.965 -33.326  17.292  1.00  0.00     0.038 A 
ATOM      5  C   UNL     1      55.133 -33.647  18.645  1.00  0.00     0.049 A 
ATOM      6  C   UNL     1      54.245 -34.514  19.324  1.00  0.00     0.126 A 
ATOM      7  N   UNL     1      53.154 -35.114  18.795  1.00  0.00    -0.208 NA
ATOM      8  C   UNL     1      52.969 -34.816  17.483  1.00  0.00     0.204 A 
ATOM      9  N   UNL     1      51.987 -35.269  16.708  1.00  0.00    -0.128 NA
ENDROOT
BRANCH   1  10
ATOM     10  C   UNL     1      51.447 -34.881  14.380  1.00  0.00     0.086 A 
ATOM     11  C   UNL     1      49.826 -35.285  12.112  1.00  0.00     0.041 A 
ATOM     12  C   UNL     1      49.485 -35.855  13.345  1.00  0.00     0.028 A 
ATOM     13  C   UNL     1      50.986 -34.512  12.025  1.00  0.00     0.028 A 
ATOM     14  C   UNL     1      50.287 -35.657  14.475  1.00  0.00     0.032 A 
ATOM     15  C   UNL     1      51.794 -34.308  13.150  1.00  0.00     0.032 A 
BRANCH  11  16
ATOM     16  N   UNL     1      48.962 -35.537  11.027  1.00  0.00    -0.326 N 
ATOM     17  C   UNL     1      49.219 -36.306   9.906  1.00  0.00     0.221 C 
ATOM     18  O   UNL     1      50.259 -36.897   9.638  1.00  0.00    -0.275 OA
ATOM     19  C   UNL     1      48.048 -36.336   8.955  1.00  0.00     0.114 C 
ATOM     20  H   UNL     1      48.052 -35.096  11.075  1.00  0.00     0.169 HD
ENDBRANCH  11  16
ENDBRANCH   1  10
BRANCH   6  21
ATOM     21  N   UNL     1      54.471 -34.763  20.682  1.00  0.00    -0.384 N 
ATOM     22  H   UNL     1      55.408 -35.108  20.855  1.00  0.00     0.158 HD
ATOM     23  H   UNL     1      53.763 -35.429  20.989  1.00  0.00     0.158 HD
ENDBRANCH   6  21
TORSDOF 3
ENDMDL
MODEL 4
REMARK minimizedAffinity -9.23785496
REMARK CNNscore 0.650534749
REMARK CNNaffinity 6.20182848
REMARK SMILES CC(=O)Nc1ccc(-n2nc3ccc(N)nc3n2)cc1
REMARK SMILES IDX 9 1 10 2 11 3 12 4 13 5 14 6 16 7 17 8 18 9 8 10 5 11 6 12
REMARK SMILES IDX 20 13 7 14 19 15 4 16 2 17 3 18 1 19 15 21
REMARK H PARENT 4 20 15 22 15 23
ROOT
ATOM      1  N   UNL     1      53.062 -34.417  16.608  1.00  0.00    -0.149 N 
ATOM      2  N   UNL     1      54.096 -33.534  16.585  1.00  0.00    -0.146 NA
ATOM      3  C   UNL     1      54.607 -33.638  17.821  1.00  0.00     0.132 A 
ATOM      4  C   UNL     1      55.692 -32.967  18.397  1.00  0.00     0.038 A 
ATOM      5  C   UNL     1      55.919 -33.353  19.724  1.00  0.00     0.049 A 
ATOM      6  C   UNL     1      55.117 -34.324  20.369  1.00  0.00     0.126 A 
ATOM      7  N   UNL     1      54.063 -34.976  19.827  1.00  0.00    -0.208 NA
ATOM      8  C   UNL     1      53.822 -34.617  18.540  1.00  0.00     0.204 A 
ATOM      9  N   UNL     1      52.858 -35.099  17.760  1.00  0.00    -0.128 NA
ENDROOT
BRANCH   1  10
ATOM     10  C   UNL     1      52.231 -34.619  15.471  1.00  0.00     0.086 A 
ATOM     11  C   UNL     1      50.589 -35.015  13.216  1.00  0.00     0.041 A 
ATOM     12  C   UNL     1      50.200 -35.489  14.476  1.00  0.00     0.028 A 
ATOM     13  C   UNL     1      51.806 -34.341  13.096  1.00  0.00     0.028 A 
ATOM     14  C   UNL     1      51.013 -35.295  15.599  1.00  0.00     0.032 A 
ATOM     15  C   UNL     1      52.625 -34.142  14.215  1.00  0.00     0.032 A 
BRANCH  11  16
ATOM     16  N   UNL     1      49.710 -35.256  12.141  1.00  0.00    -0.326 N 
ATOM     17  C   UNL     1      48.671 -36.168  12.090  1.00  0.00     0.221 C 
ATOM     18  O   UNL     1      48.332 -36.953  12.969  1.00  0.00    -0.275 OA
ATOM     19  C   UNL     1      47.956 -36.143  10.762  1.00  0.00     0.114 C 
ATOM     20  H   UNL     1      49.868 -34.702  11.309  1.00  0.00     0.169 HD
ENDBRANCH  11  16
ENDBRANCH   1  10
BRANCH   6  21
ATOM     21  N   UNL     1      55.396 -34.635  21.704  1.00  0.00    -0.384 N 
ATOM     22  H   UNL     1      56.362 -34.915  21.836  1.00  0.00     0.158 HD
ATOM     23  H   UNL     1      54.750 -35.370  21.985  1.00  0.00     0.158 HD
ENDBRANCH   6  21
TORSDOF 3
ENDMDL
MODEL 5
REMARK minimizedAffinity -9.04696941
REMARK CNNscore 0.650328577
REMARK CNNaffinity 6.290802
REMARK SMILES CC(=O)Nc1ccc(-n2nc3ccc(N)nc3n2)cc1
REMARK SMILES IDX 9 1 10 2 11 3 12 4 13 5 14 6 16 7 17 8 18 9 8 10 5 11 6 12
REMARK SMILES IDX 20 13 7 14 19 15 4 16 2 17 3 18 1 19 15 21
REMARK H PARENT 4 20 15 22 15 23
ROOT
ATOM      1  N   UNL     1      52.647 -34.599  16.061  1.00  0.00    -0.149 N 
ATOM      2  N   UNL     1      52.976 -34.210  14.800  1.00  0.00    -0.146 NA
ATOM      3  C   UNL     1      51.908 -34.589  14.082  1.00  0.00     0.132 A 
ATOM      4  C   UNL     1      51.663 -34.457  12.710  1.00  0.00     0.038 A 
ATOM      5  C   UNL     1      50.420 -34.980  12.333  1.00  0.00     0.049 A 
ATOM      6  C   UNL     1      49.537 -35.562  13.273  1.00  0.00     0.126 A 
ATOM      7  N   UNL     1      49.763 -35.701  14.599  1.00  0.00    -0.208 NA
ATOM      8  C   UNL     1      50.964 -35.203  14.989  1.00  0.00     0.204 A 
ATOM      9  N   UNL     1      51.444 -35.196  16.229  1.00  0.00    -0.128 NA
ENDROOT
BRANCH   1  10
ATOM     10  C   UNL     1      53.528 -34.386  17.158  1.00  0.00     0.086 A 
ATOM     11  C   UNL     1      55.276 -33.961  19.327  1.00  0.00     0.041 A 
ATOM     12  C   UNL     1      54.182 -34.828  19.449  1.00  0.00     0.028 A 
ATOM     13  C   UNL     1      55.486 -33.309  18.110  1.00  0.00     0.028 A 
ATOM     14  C   UNL     1      53.311 -35.042  18.374  1.00  0.00     0.032 A 
ATOM     15  C   UNL     1      54.620 -33.518  17.029  1.00  0.00     0.032 A 
BRANCH  11  16
ATOM     16  N   UNL     1      56.099 -33.803  20.460  1.00  0.00    -0.326 N 
ATOM     17  C   UNL     1      56.405 -34.754  21.417  1.00  0.00     0.221 C 
ATOM     18  O   UNL     1      56.000 -35.909  21.469  1.00  0.00    -0.275 OA
ATOM     19  C   UNL     1      57.318 -34.209  22.489  1.00  0.00     0.114 C 
ATOM     20  H   UNL     1      56.504 -32.885  20.587  1.00  0.00     0.169 HD
ENDBRANCH  11  16
ENDBRANCH   1  10
BRANCH   6  21
ATOM     21  N   UNL     1      48.324 -36.083  12.810  1.00  0.00    -0.384 N 
ATOM     22  H   UNL     1      47.789 -35.396  12.289  1.00  0.00     0.158 HD
ATOM     23  H   UNL     1      47.811 -36.422  13.621  1.00  0.00     0.158 HD
ENDBRANCH   6  21
TORSDOF 3
ENDMDL
MODEL 6
REMARK minimizedAffinity -9.2024889
REMARK CNNscore 0.614331365
REMARK CNNaffinity 6.23714495
REMARK SMILES CC(=O)Nc1ccc(-n2nc3ccc(N)nc3n2)cc1
REMARK SMILES IDX 9 1 10 2 11 3 12 4 13 5 14 6 16 7 17 8 18 9 8 10 5 11 6 12
REMARK SMILES IDX 20 13 7 14 19 15 4 16 2 17 3 18 1 19 15 21
REMARK H PARENT 4 20 15 22 15 23
ROOT
ATOM      1  N   UNL     1      52.956 -34.311  16.651  1.00  0.00    -0.149 N 
ATOM      2  N   UNL     1      52.882 -35.140  17.726  1.00  0.00    -0.146 NA
ATOM      3  C   UNL     1      53.753 -34.592  18.588  1.00  0.00     0.132 A 
ATOM      4  C   UNL     1      54.113 -35.005  19.876  1.00  0.00     0.038 A 
ATOM      5  C   UNL     1      55.064 -34.163  20.464  1.00  0.00     0.049 A 
ATOM      6  C   UNL     1      55.571 -33.024  19.794  1.00  0.00     0.126 A 
ATOM      7  N   UNL     1      55.237 -32.617  18.548  1.00  0.00    -0.208 NA
ATOM      8  C   UNL     1      54.316 -33.420  17.956  1.00  0.00     0.204 A 
ATOM      9  N   UNL     1      53.800 -33.257  16.741  1.00  0.00    -0.128 NA
ENDROOT
BRANCH   1  10
ATOM     10  C   UNL     1      52.178 -34.539  15.482  1.00  0.00     0.086 A 
ATOM     11  C   UNL     1      50.639 -34.987  13.164  1.00  0.00     0.041 A 
ATOM     12  C   UNL     1      50.211 -35.465  14.411  1.00  0.00     0.028 A 
ATOM     13  C   UNL     1      51.843 -34.284  13.090  1.00  0.00     0.028 A 
ATOM     14  C   UNL     1      50.972 -35.244  15.564  1.00  0.00     0.032 A 
ATOM     15  C   UNL     1      52.611 -34.059  14.240  1.00  0.00     0.032 A 
BRANCH  11  16
ATOM     16  N   UNL     1      49.811 -35.256  12.055  1.00  0.00    -0.326 N 
ATOM     17  C   UNL     1      48.803 -36.199  11.966  1.00  0.00     0.221 C 
ATOM     18  O   UNL     1      48.454 -36.993  12.832  1.00  0.00    -0.275 OA
ATOM     19  C   UNL     1      48.140 -36.196  10.610  1.00  0.00     0.114 C 
ATOM     20  H   UNL     1      49.984 -34.697  11.230  1.00  0.00     0.169 HD
ENDBRANCH  11  16
ENDBRANCH   1  10
BRANCH   6  21
ATOM     21  N   UNL     1      56.538 -32.248  20.443  1.00  0.00    -0.384 N 
ATOM     22  H   UNL     1      56.226 -31.938  21.356  1.00  0.00     0.158 HD
ATOM     23  H   UNL     1      56.755 -31.463  19.833  1.00  0.00     0.158 HD
ENDBRANCH   6  21
TORSDOF 3
ENDMDL
MODEL 7
REMARK minimizedAffinity -6.68527412
REMARK CNNscore 0.598118603
REMARK CNNaffinity 6.42776489
REMARK SMILES CC(=O)Nc1ccc(-n2nc3ccc(N)nc3n2)cc1
REMARK SMILES IDX 9 1 10 2 11 3 12 4 13 5 14 6 16 7 17 8 18 9 8 10 5 11 6 12
REMARK SMILES IDX 20 13 7 14 19 15 4 16 2 17 3 18 1 19 15 21
REMARK H PARENT 4 20 15 22 15 23
ROOT
ATOM      1  N   UNL     1      54.419 -33.613  19.892  1.00  0.00    -0.149 N 
ATOM      2  N   UNL     1      54.808 -33.554  18.590  1.00  0.00    -0.146 NA
ATOM      3  C   UNL     1      53.812 -34.186  17.951  1.00  0.00     0.132 A 
ATOM      4  C   UNL     1      53.651 -34.445  16.584  1.00  0.00     0.038 A 
ATOM      5  C   UNL     1      52.467 -35.136  16.304  1.00  0.00     0.049 A 
ATOM      6  C   UNL     1      51.557 -35.506  17.323  1.00  0.00     0.126 A 
ATOM      7  N   UNL     1      51.702 -35.268  18.647  1.00  0.00    -0.208 NA
ATOM      8  C   UNL     1      52.845 -34.599  18.944  1.00  0.00     0.204 A 
ATOM      9  N   UNL     1      53.242 -34.226  20.157  1.00  0.00    -0.128 NA
ENDROOT
BRANCH   1  10
ATOM     10  C   UNL     1      55.212 -33.051  20.931  1.00  0.00     0.086 A 
ATOM     11  C   UNL     1      56.787 -31.938  22.985  1.00  0.00     0.041 A 
ATOM     12  C   UNL     1      55.580 -32.586  23.281  1.00  0.00     0.028 A 
ATOM     13  C   UNL     1      57.197 -31.852  21.653  1.00  0.00     0.028 A 
ATOM     14  C   UNL     1      54.795 -33.141  22.263  1.00  0.00     0.032 A 
ATOM     15  C   UNL     1      56.417 -32.404  20.629  1.00  0.00     0.032 A 
BRANCH  11  16
ATOM     16  N   UNL     1      57.513 -31.408  24.071  1.00  0.00    -0.326 N 
ATOM     17  C   UNL     1      57.636 -30.078  24.433  1.00  0.00     0.221 C 
ATOM     18  O   UNL     1      57.149 -29.108  23.863  1.00  0.00    -0.275 OA
ATOM     19  C   UNL     1      58.504 -29.899  25.654  1.00  0.00     0.114 C 
ATOM     20  H   UNL     1      58.006 -32.081  24.643  1.00  0.00     0.169 HD
ENDBRANCH  11  16
ENDBRANCH   1  10
BRANCH   6  21
ATOM     21  N   UNL     1      50.408 -36.217  16.960  1.00  0.00    -0.384 N 
ATOM     22  H   UNL     1      49.872 -35.735  16.247  1.00  0.00     0.158 HD
ATOM     23  H   UNL     1      49.862 -36.362  17.807  1.00  0.00     0.158 HD
ENDBRANCH   6  21
TORSDOF 3
ENDMDL
MODEL 8
REMARK minimizedAffinity -9.19374466
REMARK CNNscore 0.588443995
REMARK CNNaffinity 6.10585928
REMARK SMILES CC(=O)Nc1ccc(-n2nc3ccc(N)nc3n2)cc1
REMARK SMILES IDX 9 1 10 2 11 3 12 4 13 5 14 6 16 7 17 8 18 9 8 10 5 11 6 12
REMARK SMILES IDX 20 13 7 14 19 15 4 16 2 17 3 18 1 19 15 21
REMARK H PARENT 4 20 15 22 15 23
ROOT
ATOM      1  N   UNL     1      53.139 -34.393  16.745  1.00  0.00    -0.149 N 
ATOM      2  N   UNL     1      54.169 -33.506  16.695  1.00  0.00    -0.146 NA
ATOM      3  C   UNL     1      54.701 -33.595  17.923  1.00  0.00     0.132 A 
ATOM      4  C   UNL     1      55.793 -32.913  18.474  1.00  0.00     0.038 A 
ATOM      5  C   UNL     1      56.045 -33.284  19.801  1.00  0.00     0.049 A 
ATOM      6  C   UNL     1      55.259 -34.252  20.469  1.00  0.00     0.126 A 
ATOM      7  N   UNL     1      54.198 -34.914  19.951  1.00  0.00    -0.208 NA
ATOM      8  C   UNL     1      53.933 -34.570  18.665  1.00  0.00     0.204 A 
ATOM      9  N   UNL     1      52.959 -35.064  17.907  1.00  0.00    -0.128 NA
ENDROOT
BRANCH   1  10
ATOM     10  C   UNL     1      52.290 -34.610  15.625  1.00  0.00     0.086 A 
ATOM     11  C   UNL     1      50.606 -35.043  13.408  1.00  0.00     0.041 A 
ATOM     12  C   UNL     1      51.828 -34.375  13.257  1.00  0.00     0.028 A 
ATOM     13  C   UNL     1      50.235 -35.492  14.677  1.00  0.00     0.028 A 
ATOM     14  C   UNL     1      52.668 -34.158  14.356  1.00  0.00     0.032 A 
ATOM     15  C   UNL     1      51.070 -35.279  15.782  1.00  0.00     0.032 A 
BRANCH  11  16
ATOM     16  N   UNL     1      49.822 -35.217  12.249  1.00  0.00    -0.326 N 
ATOM     17  C   UNL     1      48.806 -36.134  12.048  1.00  0.00     0.221 C 
ATOM     18  O   UNL     1      48.410 -36.983  12.839  1.00  0.00    -0.275 OA
ATOM     19  C   UNL     1      48.202 -36.022  10.670  1.00  0.00     0.114 C 
ATOM     20  H   UNL     1      50.038 -34.603  11.474  1.00  0.00     0.169 HD
ENDBRANCH  11  16
ENDBRANCH   1  10
BRANCH   6  21
ATOM     21  N   UNL     1      55.562 -34.548  21.802  1.00  0.00    -0.384 N 
ATOM     22  H   UNL     1      56.531 -34.822  21.920  1.00  0.00     0.158 HD
ATOM     23  H   UNL     1      54.924 -35.283  22.102  1.00  0.00     0.158 HD
ENDBRANCH   6  21
TORSDOF 3
ENDMDL
MODEL 9
REMARK minimizedAffinity -9.7398901
REMARK CNNscore 0.579346716
REMARK CNNaffinity 6.47587156
REMARK SMILES CC(=O)Nc1ccc(-n2nc3ccc(N)nc3n2)cc1
REMARK SMILES IDX 9 1 10 2 11 3 12 4 13 5 14 6 16 7 17 8 18 9 8 10 5 11 6 12
REMARK SMILES IDX 20 13 7 14 19 15 4 16 2 17 3 18 1 19 15 21
REMARK H PARENT 4 20 15 22 15 23
ROOT
ATOM      1  N   UNL     1      54.099 -34.538  19.631  1.00  0.00    -0.149 N 
ATOM      2  N   UNL     1      54.909 -35.510  20.129  1.00  0.00    -0.146 NA
ATOM      3  C   UNL     1      55.657 -34.847  21.024  1.00  0.00     0.132 A 
ATOM      4  C   UNL     1      56.678 -35.319  21.858  1.00  0.00     0.038 A 
ATOM      5  C   UNL     1      57.225 -34.311  22.661  1.00  0.00     0.049 A 
ATOM      6  C   UNL     1      56.759 -32.976  22.607  1.00  0.00     0.126 A 
ATOM      7  N   UNL     1      55.779 -32.505  21.803  1.00  0.00    -0.208 NA
ATOM      8  C   UNL     1      55.233 -33.464  21.012  1.00  0.00     0.204 A 
ATOM      9  N   UNL     1      54.250 -33.290  20.134  1.00  0.00    -0.128 NA
ENDROOT
BRANCH   1  10
ATOM     10  C   UNL     1      53.132 -34.819  18.626  1.00  0.00     0.086 A 
ATOM     11  C   UNL     1      51.214 -35.379  16.640  1.00  0.00     0.041 A 
ATOM     12  C   UNL     1      52.466 -34.853  16.296  1.00  0.00     0.028 A 
ATOM     13  C   UNL     1      50.931 -35.622  17.985  1.00  0.00     0.028 A 
ATOM     14  C   UNL     1      53.423 -34.574  17.280  1.00  0.00     0.032 A 
ATOM     15  C   UNL     1      51.882 -35.345  18.976  1.00  0.00     0.032 A 
BRANCH  11  16
ATOM     16  N   UNL     1      50.312 -35.629  15.585  1.00  0.00    -0.326 N 
ATOM     17  C   UNL     1      50.516 -35.416  14.234  1.00  0.00     0.221 C 
ATOM     18  O   UNL     1      51.516 -34.950  13.701  1.00  0.00    -0.275 OA
ATOM     19  C   UNL     1      49.312 -35.799  13.409  1.00  0.00     0.114 C 
ATOM     20  H   UNL     1      49.409 -35.999  15.855  1.00  0.00     0.169 HD
ENDBRANCH  11  16
ENDBRANCH   1  10
BRANCH   6  21
ATOM     21  N   UNL     1      57.377 -32.024  23.426  1.00  0.00    -0.384 N 
ATOM     22  H   UNL     1      57.369 -32.299  24.401  1.00  0.00     0.158 HD
ATOM     23  H   UNL     1      56.892 -31.140  23.281  1.00  0.00     0.158 HD
ENDBRANCH   6  21
TORSDOF 3
ENDMDL
