MODEL 1
REMARK minimizedAffinity -9.29047585
REMARK CNNscore 0.983515739
REMARK CNNaffinity 6.34304571
REMARK SMILES CC(=O)c1cccc(-c2cnc3[nH]ccc3c2)c1
REMARK SMILES IDX 4 1 5 2 6 3 7 4 8 5 18 6 2 7 3 8 1 9 9 10 10 11 17 12 11 13
REMARK SMILES IDX 16 14 12 15 15 16 13 17 14 18
REMARK H PARENT 13 19
ROOT
ATOM      1  C   UNL     1      50.066 -35.413  12.839  1.00  0.00     0.018 A 
ATOM      2  C   UNL     1      50.824 -34.537  12.056  1.00  0.00     0.012 A 
ATOM      3  C   UNL     1      51.856 -33.800  12.636  1.00  0.00     0.001 A 
ATOM      4  C   UNL     1      52.134 -33.932  13.998  1.00  0.00     0.009 A 
ATOM      5  C   UNL     1      51.389 -34.803  14.811  1.00  0.00    -0.016 A 
ATOM      6  C   UNL     1      50.354 -35.539  14.208  1.00  0.00     0.020 A 
ENDROOT
BRANCH   1   7
ATOM      7  C   UNL     1      48.953 -36.229  12.270  1.00  0.00     0.159 C 
ATOM      8  O   UNL     1      48.330 -37.005  12.991  1.00  0.00    -0.295 OA
ATOM      9  C   UNL     1      48.617 -36.089  10.808  1.00  0.00     0.093 C 
ENDBRANCH   1   7
BRANCH   5  10
ATOM     10  C   UNL     1      51.685 -34.944  16.245  1.00  0.00     0.001 A 
ATOM     11  C   UNL     1      50.728 -35.419  17.151  1.00  0.00     0.122 A 
ATOM     12  C   UNL     1      52.944 -34.604  16.771  1.00  0.00     0.022 A 
ATOM     13  N   UNL     1      50.879 -35.584  18.491  1.00  0.00    -0.238 NA
ATOM     14  C   UNL     1      53.162 -34.757  18.150  1.00  0.00     0.019 A 
ATOM     15  C   UNL     1      52.107 -35.237  18.915  1.00  0.00     0.137 A 
ATOM     16  C   UNL     1      54.248 -34.534  19.040  1.00  0.00     0.030 A 
ATOM     17  N   UNL     1      52.527 -35.309  20.215  1.00  0.00    -0.346 N 
ATOM     18  C   UNL     1      53.828 -34.883  20.308  1.00  0.00     0.085 A 
ATOM     19  H   UNL     1      51.943 -35.632  20.972  1.00  0.00     0.167 HD
ENDBRANCH   5  10
TORSDOF 2
ENDMDL
MODEL 2
REMARK minimizedAffinity -10.0140505
REMARK CNNscore 0.969012082
REMARK CNNaffinity 6.60186625
REMARK SMILES CC(=O)c1cccc(-c2cnc3[nH]ccc3c2)c1
REMARK SMILES IDX 4 1 5 2 6 3 7 4 8 5 18 6 2 7 3 8 1 9 9 10 10 11 17 12 11 13
REMARK SMILES IDX 16 14 12 15 15 16 13 17 14 18
REMARK H PARENT 13 19
ROOT
ATOM      1  C   UNL     1      55.472 -34.185  19.680  1.00  0.00     0.018 A 
ATOM      2  C   UNL     1      56.381 -33.250  19.178  1.00  0.00     0.012 A 
ATOM      3  C   UNL     1      56.199 -32.719  17.901  1.00  0.00     0.001 A 
ATOM      4  C   UNL     1      55.113 -33.121  17.121  1.00  0.00     0.009 A 
ATOM      5  C   UNL     1      54.183 -34.060  17.598  1.00  0.00    -0.016 A 
ATOM      6  C   UNL     1      54.382 -34.583  18.888  1.00  0.00     0.020 A 
ENDROOT
BRANCH   1   7
ATOM      7  C   UNL     1      55.615 -34.783  21.041  1.00  0.00     0.159 C 
ATOM      8  O   UNL     1      55.016 -34.290  21.993  1.00  0.00    -0.295 OA
ATOM      9  C   UNL     1      56.506 -35.985  21.221  1.00  0.00     0.093 C 
ENDBRANCH   1   7
BRANCH   5  10
ATOM     10  C   UNL     1      53.038 -34.482  16.776  1.00  0.00     0.001 A 
ATOM     11  C   UNL     1      51.953 -35.178  17.326  1.00  0.00     0.122 A 
ATOM     12  C   UNL     1      52.983 -34.204  15.399  1.00  0.00     0.022 A 
ATOM     13  N   UNL     1      50.850 -35.624  16.671  1.00  0.00    -0.238 NA
ATOM     14  C   UNL     1      51.863 -34.636  14.669  1.00  0.00     0.019 A 
ATOM     15  C   UNL     1      50.872 -35.320  15.362  1.00  0.00     0.137 A 
ATOM     16  C   UNL     1      51.440 -34.561  13.314  1.00  0.00     0.030 A 
ATOM     17  N   UNL     1      49.885 -35.647  14.474  1.00  0.00    -0.346 N 
ATOM     18  C   UNL     1      50.216 -35.192  13.222  1.00  0.00     0.085 A 
ATOM     19  H   UNL     1      49.048 -36.149  14.731  1.00  0.00     0.167 HD
ENDBRANCH   5  10
TORSDOF 2
ENDMDL
MODEL 3
REMARK minimizedAffinity -9.19057369
REMARK CNNscore 0.928445697
REMARK CNNaffinity 6.07820702
REMARK SMILES CC(=O)c1cccc(-c2cnc3[nH]ccc3c2)c1
REMARK SMILES IDX 4 1 5 2 6 3 7 4 8 5 18 6 2 7 3 8 1 9 9 10 10 11 17 12 11 13
REMARK SMILES IDX 16 14 12 15 15 16 13 17 14 18
REMARK H PARENT 13 19
ROOT
ATOM      1  C   UNL     1      56.400 -32.660  22.568  1.00  0.00     0.018 A 
ATOM      2  C   UNL     1      57.254 -33.680  22.997  1.00  0.00     0.012 A 
ATOM      3  C   UNL     1      57.240 -34.917  22.352  1.00  0.00     0.001 A 
ATOM      4  C   UNL     1      56.373 -35.142  21.281  1.00  0.00     0.009 A 
ATOM      5  C   UNL     1      55.502 -34.136  20.828  1.00  0.00    -0.016 A 
ATOM      6  C   UNL     1      55.532 -32.896  21.489  1.00  0.00     0.020 A 
ENDROOT
BRANCH   1   7
ATOM      7  C   UNL     1      56.375 -31.316  23.219  1.00  0.00     0.159 C 
ATOM      8  O   UNL     1      57.277 -30.512  22.997  1.00  0.00    -0.295 OA
ATOM      9  C   UNL     1      55.239 -30.975  24.147  1.00  0.00     0.093 C 
ENDBRANCH   1   7
BRANCH   5  10
ATOM     10  C   UNL     1      54.590 -34.373  19.698  1.00  0.00     0.001 A 
ATOM     11  C   UNL     1      53.322 -34.939  19.881  1.00  0.00     0.122 A 
ATOM     12  C   UNL     1      54.955 -34.041  18.381  1.00  0.00     0.022 A 
ATOM     13  N   UNL     1      52.400 -35.211  18.920  1.00  0.00    -0.238 NA
ATOM     14  C   UNL     1      54.041 -34.295  17.345  1.00  0.00     0.019 A 
ATOM     15  C   UNL     1      52.823 -34.866  17.691  1.00  0.00     0.137 A 
ATOM     16  C   UNL     1      54.025 -34.116  15.934  1.00  0.00     0.030 A 
ATOM     17  N   UNL     1      52.092 -35.028  16.547  1.00  0.00    -0.346 N 
ATOM     18  C   UNL     1      52.810 -34.577  15.468  1.00  0.00     0.085 A 
ATOM     19  H   UNL     1      51.164 -35.423  16.530  1.00  0.00     0.167 HD
ENDBRANCH   5  10
TORSDOF 2
ENDMDL
MODEL 4
REMARK minimizedAffinity -9.44851208
REMARK CNNscore 0.9261415
REMARK CNNaffinity 6.1046834
REMARK SMILES CC(=O)c1cccc(-c2cnc3[nH]ccc3c2)c1
REMARK SMILES IDX 4 1 5 2 6 3 7 4 8 5 18 6 2 7 3 8 1 9 9 10 10 11 17 12 11 13
REMARK SMILES IDX 16 14 12 15 15 16 13 17 14 18
REMARK H PARENT 13 19
ROOT
ATOM      1  C   UNL     1      52.467 -34.933  17.028  1.00  0.00     0.018 A 
ATOM      2  C   UNL     1      53.058 -34.664  15.789  1.00  0.00     0.012 A 
ATOM      3  C   UNL     1      54.362 -34.171  15.733  1.00  0.00     0.001 A 
ATOM      4  C   UNL     1      55.078 -33.941  16.909  1.00  0.00     0.009 A 
ATOM      5  C   UNL     1      54.510 -34.200  18.168  1.00  0.00    -0.016 A 
ATOM      6  C   UNL     1      53.196 -34.699  18.205  1.00  0.00     0.020 A 
ENDROOT
BRANCH   1   7
ATOM      7  C   UNL     1      51.077 -35.466  17.147  1.00  0.00     0.159 C 
ATOM      8  O   UNL     1      50.613 -35.724  18.255  1.00  0.00    -0.295 OA
ATOM      9  C   UNL     1      50.269 -35.684  15.895  1.00  0.00     0.093 C 
ENDBRANCH   1   7
BRANCH   5  10
ATOM     10  C   UNL     1      55.266 -33.959  19.408  1.00  0.00     0.001 A 
ATOM     11  C   UNL     1      55.480 -32.666  19.900  1.00  0.00     0.122 A 
ATOM     12  C   UNL     1      55.808 -35.021  20.152  1.00  0.00     0.022 A 
ATOM     13  N   UNL     1      56.164 -32.320  21.022  1.00  0.00    -0.238 NA
ATOM     14  C   UNL     1      56.523 -34.726  21.325  1.00  0.00     0.019 A 
ATOM     15  C   UNL     1      56.651 -33.389  21.676  1.00  0.00     0.137 A 
ATOM     16  C   UNL     1      57.204 -35.480  22.320  1.00  0.00     0.030 A 
ATOM     17  N   UNL     1      57.374 -33.324  22.835  1.00  0.00    -0.346 N 
ATOM     18  C   UNL     1      57.719 -34.589  23.240  1.00  0.00     0.085 A 
ATOM     19  H   UNL     1      57.605 -32.459  23.301  1.00  0.00     0.167 HD
ENDBRANCH   5  10
TORSDOF 2
ENDMDL
MODEL 5
REMARK minimizedAffinity -9.02558517
REMARK CNNscore 0.826963723
REMARK CNNaffinity 5.97103548
REMARK SMILES CC(=O)c1cccc(-c2cnc3[nH]ccc3c2)c1
REMARK SMILES IDX 4 1 5 2 6 3 7 4 8 5 18 6 2 7 3 8 1 9 9 10 10 11 17 12 11 13
REMARK SMILES IDX 16 14 12 15 15 16 13 17 14 18
REMARK H PARENT 13 19
ROOT
ATOM      1  C   UNL     1      52.370 -34.895  16.626  1.00  0.00     0.018 A 
ATOM      2  C   UNL     1      53.110 -34.561  15.488  1.00  0.00     0.012 A 
ATOM      3  C   UNL     1      54.424 -34.111  15.620  1.00  0.00     0.001 A 
ATOM      4  C   UNL     1      55.002 -33.990  16.885  1.00  0.00     0.009 A 
ATOM      5  C   UNL     1      54.283 -34.317  18.047  1.00  0.00    -0.016 A 
ATOM      6  C   UNL     1      52.961 -34.771  17.895  1.00  0.00     0.020 A 
ENDROOT
BRANCH   1   7
ATOM      7  C   UNL     1      50.962 -35.386  16.544  1.00  0.00     0.159 C 
ATOM      8  O   UNL     1      50.370 -35.724  17.566  1.00  0.00    -0.295 OA
ATOM      9  C   UNL     1      50.293 -35.464  15.197  1.00  0.00     0.093 C 
ENDBRANCH   1   7
BRANCH   5  10
ATOM     10  C   UNL     1      54.894 -34.192  19.380  1.00  0.00     0.001 A 
ATOM     11  C   UNL     1      55.104 -35.307  20.201  1.00  0.00     0.122 A 
ATOM     12  C   UNL     1      55.293 -32.944  19.888  1.00  0.00     0.022 A 
ATOM     13  N   UNL     1      55.648 -35.317  21.446  1.00  0.00    -0.238 NA
ATOM     14  C   UNL     1      55.867 -32.890  21.170  1.00  0.00     0.019 A 
ATOM     15  C   UNL     1      56.002 -34.087  21.860  1.00  0.00     0.137 A 
ATOM     16  C   UNL     1      56.380 -31.868  22.014  1.00  0.00     0.030 A 
ATOM     17  N   UNL     1      56.576 -33.814  23.071  1.00  0.00    -0.346 N 
ATOM     18  C   UNL     1      56.811 -32.466  23.180  1.00  0.00     0.085 A 
ATOM     19  H   UNL     1      56.784 -34.519  23.762  1.00  0.00     0.167 HD
ENDBRANCH   5  10
TORSDOF 2
ENDMDL
MODEL 6
REMARK minimizedAffinity -8.13341904
REMARK CNNscore 0.823687255
REMARK CNNaffinity 5.27780676
REMARK SMILES CC(=O)c1cccc(-c2cnc3[nH]ccc3c2)c1
REMARK SMILES IDX 4 1 5 2 6 3 7 4 8 5 18 6 2 7 3 8 1 9 9 10 10 11 17 12 11 13
REMARK SMILES IDX 16 14 12 15 15 16 13 17 14 18
REMARK H PARENT 13 19
ROOT
ATOM      1  C   UNL     1      51.915 -35.043  17.016  1.00  0.00     0.018 A 
ATOM      2  C   UNL     1      53.096 -34.348  16.739  1.00  0.00     0.012 A 
ATOM      3  C   UNL     1      53.400 -33.989  15.426  1.00  0.00     0.001 A 
ATOM      4  C   UNL     1      52.531 -34.323  14.386  1.00  0.00     0.009 A 
ATOM      5  C   UNL     1      51.337 -35.022  14.634  1.00  0.00    -0.016 A 
ATOM      6  C   UNL     1      51.047 -35.375  15.963  1.00  0.00     0.020 A 
ENDROOT
BRANCH   1   7
ATOM      7  C   UNL     1      51.538 -35.450  18.403  1.00  0.00     0.159 C 
ATOM      8  O   UNL     1      50.474 -36.030  18.603  1.00  0.00    -0.295 OA
ATOM      9  C   UNL     1      52.475 -35.130  19.538  1.00  0.00     0.093 C 
ENDBRANCH   1   7
BRANCH   5  10
ATOM     10  C   UNL     1      50.420 -35.372  13.538  1.00  0.00     0.001 A 
ATOM     11  C   UNL     1      49.347 -36.253  13.728  1.00  0.00     0.122 A 
ATOM     12  C   UNL     1      50.581 -34.837  12.248  1.00  0.00     0.022 A 
ATOM     13  N   UNL     1      48.443 -36.656  12.797  1.00  0.00    -0.238 NA
ATOM     14  C   UNL     1      49.674 -35.213  11.243  1.00  0.00     0.019 A 
ATOM     15  C   UNL     1      48.666 -36.102  11.592  1.00  0.00     0.137 A 
ATOM     16  C   UNL     1      49.498 -34.912   9.865  1.00  0.00     0.030 A 
ATOM     17  N   UNL     1      47.903 -36.333  10.481  1.00  0.00    -0.346 N 
ATOM     18  C   UNL     1      48.398 -35.616   9.420  1.00  0.00     0.085 A 
ATOM     19  H   UNL     1      47.101 -36.945  10.472  1.00  0.00     0.167 HD
ENDBRANCH   5  10
TORSDOF 2
ENDMDL
MODEL 7
REMARK minimizedAffinity -7.56605721
REMARK CNNscore 0.802279592
REMARK CNNaffinity 5.52190638
REMARK SMILES CC(=O)c1cccc(-c2cnc3[nH]ccc3c2)c1
REMARK SMILES IDX 4 1 5 2 6 3 7 4 8 5 18 6 2 7 3 8 1 9 9 10 10 11 17 12 11 13
REMARK SMILES IDX 16 14 12 15 15 16 13 17 14 18
REMARK H PARENT 13 19
ROOT
ATOM      1  C   UNL     1      50.605 -35.178  11.223  1.00  0.00     0.018 A 
ATOM      2  C   UNL     1      49.305 -35.688  11.283  1.00  0.00     0.012 A 
ATOM      3  C   UNL     1      48.731 -35.986  12.519  1.00  0.00     0.001 A 
ATOM      4  C   UNL     1      49.451 -35.780  13.697  1.00  0.00     0.009 A 
ATOM      5  C   UNL     1      50.760 -35.270  13.668  1.00  0.00    -0.016 A 
ATOM      6  C   UNL     1      51.321 -34.973  12.414  1.00  0.00     0.020 A 
ENDROOT
BRANCH   1   7
ATOM      7  C   UNL     1      51.267 -34.837   9.929  1.00  0.00     0.159 C 
ATOM      8  O   UNL     1      52.284 -35.435   9.585  1.00  0.00    -0.295 OA
ATOM      9  C   UNL     1      50.674 -33.753   9.068  1.00  0.00     0.093 C 
ENDBRANCH   1   7
BRANCH   5  10
ATOM     10  C   UNL     1      51.518 -35.050  14.910  1.00  0.00     0.001 A 
ATOM     11  C   UNL     1      50.997 -35.399  16.163  1.00  0.00     0.122 A 
ATOM     12  C   UNL     1      52.802 -34.478  14.893  1.00  0.00     0.022 A 
ATOM     13  N   UNL     1      51.595 -35.239  17.372  1.00  0.00    -0.238 NA
ATOM     14  C   UNL     1      53.473 -34.291  16.113  1.00  0.00     0.019 A 
ATOM     15  C   UNL     1      52.816 -34.686  17.272  1.00  0.00     0.137 A 
ATOM     16  C   UNL     1      54.732 -33.765  16.514  1.00  0.00     0.030 A 
ATOM     17  N   UNL     1      53.635 -34.419  18.334  1.00  0.00    -0.346 N 
ATOM     18  C   UNL     1      54.805 -33.857  17.889  1.00  0.00     0.085 A 
ATOM     19  H   UNL     1      53.388 -34.617  19.292  1.00  0.00     0.167 HD
ENDBRANCH   5  10
TORSDOF 2
ENDMDL
MODEL 8
REMARK minimizedAffinity -8.81507874
REMARK CNNscore 0.793907583
REMARK CNNaffinity 5.85677671
REMARK SMILES CC(=O)c1cccc(-c2cnc3[nH]ccc3c2)c1
REMARK SMILES IDX 4 1 5 2 6 3 7 4 8 5 18 6 2 7 3 8 1 9 9 10 10 11 17 12 11 13
REMARK SMILES IDX 16 14 12 15 15 16 13 17 14 18
REMARK H PARENT 13 19
ROOT
ATOM      1  C   UNL     1      54.587 -34.193  19.045  1.00  0.00     0.018 A 
ATOM      2  C   UNL     1      55.729 -33.510  18.615  1.00  0.00     0.012 A 
ATOM      3  C   UNL     1      55.863 -33.155  17.272  1.00  0.00     0.001 A 
ATOM      4  C   UNL     1      54.862 -33.482  16.355  1.00  0.00     0.009 A 
ATOM      5  C   UNL     1      53.705 -34.170  16.758  1.00  0.00    -0.016 A 
ATOM      6  C   UNL     1      53.586 -34.518  18.114  1.00  0.00     0.020 A 
ENDROOT
BRANCH   1   7
ATOM      7  C   UNL     1      54.390 -34.594  20.470  1.00  0.00     0.159 C 
ATOM      8  O   UNL     1      53.339 -35.130  20.815  1.00  0.00    -0.295 OA
ATOM      9  C   UNL     1      55.489 -34.324  21.464  1.00  0.00     0.093 C 
ENDBRANCH   1   7
BRANCH   5  10
ATOM     10  C   UNL     1      52.649 -34.513  15.791  1.00  0.00     0.001 A 
ATOM     11  C   UNL     1      51.485 -35.188  16.180  1.00  0.00     0.122 A 
ATOM     12  C   UNL     1      52.765 -34.178  14.431  1.00  0.00     0.022 A 
ATOM     13  N   UNL     1      50.451 -35.564  15.383  1.00  0.00    -0.238 NA
ATOM     14  C   UNL     1      51.725 -34.536  13.557  1.00  0.00     0.019 A 
ATOM     15  C   UNL     1      50.637 -35.208  14.100  1.00  0.00     0.137 A 
ATOM     16  C   UNL     1      51.466 -34.390  12.167  1.00  0.00     0.030 A 
ATOM     17  N   UNL     1      49.750 -35.460  13.090  1.00  0.00    -0.346 N 
ATOM     18  C   UNL     1      50.240 -34.969  11.907  1.00  0.00     0.085 A 
ATOM     19  H   UNL     1      48.872 -35.939  13.226  1.00  0.00     0.167 HD
ENDBRANCH   5  10
TORSDOF 2
ENDMDL
MODEL 9
REMARK minimizedAffinity -9.31547451
REMARK CNNscore 0.703228712
REMARK CNNaffinity 5.90140104
REMARK SMILES CC(=O)c1cccc(-c2cnc3[nH]ccc3c2)c1
REMARK SMILES IDX 4 1 5 2 6 3 7 4 8 5 18 6 2 7 3 8 1 9 9 10 10 11 17 12 11 13
REMARK SMILES IDX 16 14 12 15 15 16 13 17 14 18
REMARK H PARENT 13 19
ROOT
ATOM      1  C   UNL     1      52.829 -34.763  16.710  1.00  0.00     0.018 A 
ATOM      2  C   UNL     1      51.594 -35.301  17.086  1.00  0.00     0.012 A 
ATOM      3  C   UNL     1      51.318 -35.534  18.434  1.00  0.00     0.001 A 
ATOM      4  C   UNL     1      52.272 -35.235  19.408  1.00  0.00     0.009 A 
ATOM      5  C   UNL     1      53.522 -34.695  19.061  1.00  0.00    -0.016 A 
ATOM      6  C   UNL     1      53.781 -34.466  17.699  1.00  0.00     0.020 A 
ENDROOT
BRANCH   1   7
ATOM      7  C   UNL     1      53.176 -34.490  15.284  1.00  0.00     0.159 C 
ATOM      8  O   UNL     1      54.350 -34.515  14.923  1.00  0.00    -0.295 OA
ATOM      9  C   UNL     1      52.070 -34.179  14.309  1.00  0.00     0.093 C 
ENDBRANCH   1   7
BRANCH   5  10
ATOM     10  C   UNL     1      54.526 -34.378  20.089  1.00  0.00     0.001 A 
ATOM     11  C   UNL     1      54.641 -33.092  20.634  1.00  0.00     0.122 A 
ATOM     12  C   UNL     1      55.416 -35.354  20.569  1.00  0.00     0.022 A 
ATOM     13  N   UNL     1      55.528 -32.679  21.576  1.00  0.00    -0.238 NA
ATOM     14  C   UNL     1      56.354 -34.988  21.548  1.00  0.00     0.019 A 
ATOM     15  C   UNL     1      56.343 -33.669  21.983  1.00  0.00     0.137 A 
ATOM     16  C   UNL     1      57.390 -35.648  22.265  1.00  0.00     0.030 A 
ATOM     17  N   UNL     1      57.324 -33.526  22.925  1.00  0.00    -0.346 N 
ATOM     18  C   UNL     1      57.971 -34.722  23.108  1.00  0.00     0.085 A 
ATOM     19  H   UNL     1      57.519 -32.657  23.399  1.00  0.00     0.167 HD
ENDBRANCH   5  10
TORSDOF 2
ENDMDL
