MODEL 1
REMARK minimizedAffinity -7.89467335
REMARK CNNscore 0.9327088
REMARK CNNaffinity 6.40988302
REMARK SMILES CC(=O)c1ccccc1-c1ncnc2[nH]ccc12
REMARK SMILES IDX 4 1 5 2 6 3 7 4 8 5 9 6 2 7 3 8 1 9 10 10 11 11 18 12 12 13
REMARK SMILES IDX 17 14 14 15 13 16 16 17 15 18
REMARK H PARENT 15 19
ROOT
ATOM      1  C   UNL     1      54.878 -33.483  18.844  1.00  0.00     0.027 A 
ATOM      2  C   UNL     1      56.190 -32.984  18.900  1.00  0.00     0.012 A 
ATOM      3  C   UNL     1      56.971 -32.934  17.747  1.00  0.00     0.001 A 
ATOM      4  C   UNL     1      56.447 -33.381  16.539  1.00  0.00     0.001 A 
ATOM      5  C   UNL     1      55.150 -33.898  16.488  1.00  0.00     0.011 A 
ATOM      6  C   UNL     1      54.344 -33.981  17.640  1.00  0.00     0.012 A 
ENDROOT
BRANCH   1   7
ATOM      7  C   UNL     1      54.108 -33.438  20.110  1.00  0.00     0.160 C 
ATOM      8  O   UNL     1      52.938 -33.063  20.084  1.00  0.00    -0.294 OA
ATOM      9  C   UNL     1      54.775 -33.904  21.377  1.00  0.00     0.093 C 
ENDBRANCH   1   7
BRANCH   6  10
ATOM     10  C   UNL     1      53.025 -34.597  17.533  1.00  0.00     0.084 A 
ATOM     11  N   UNL     1      52.565 -35.294  18.603  1.00  0.00    -0.236 NA
ATOM     12  C   UNL     1      52.214 -34.468  16.398  1.00  0.00     0.045 A 
ATOM     13  C   UNL     1      51.343 -35.854  18.516  1.00  0.00     0.224 A 
ATOM     14  C   UNL     1      52.286 -33.839  15.122  1.00  0.00     0.032 A 
ATOM     15  C   UNL     1      50.981 -35.101  16.459  1.00  0.00     0.141 A 
ATOM     16  N   UNL     1      50.486 -35.812  17.482  1.00  0.00    -0.219 NA
ATOM     17  C   UNL     1      51.111 -34.113  14.454  1.00  0.00     0.085 A 
ATOM     18  N   UNL     1      50.328 -34.880  15.278  1.00  0.00    -0.346 N 
ATOM     19  H   UNL     1      49.408 -35.238  15.068  1.00  0.00     0.167 HD
ENDBRANCH   6  10
TORSDOF 2
ENDMDL
MODEL 2
REMARK minimizedAffinity -6.54523611
REMARK CNNscore 0.849705219
REMARK CNNaffinity 6.36704874
REMARK SMILES CC(=O)c1ccccc1-c1ncnc2[nH]ccc12
REMARK SMILES IDX 4 1 5 2 6 3 7 4 8 5 9 6 2 7 3 8 1 9 10 10 11 11 18 12 12 13
REMARK SMILES IDX 17 14 14 15 13 16 16 17 15 18
REMARK H PARENT 15 19
ROOT
ATOM      1  C   UNL     1      55.160 -34.225  19.833  1.00  0.00     0.027 A 
ATOM      2  C   UNL     1      56.305 -34.300  20.644  1.00  0.00     0.012 A 
ATOM      3  C   UNL     1      56.718 -35.526  21.161  1.00  0.00     0.001 A 
ATOM      4  C   UNL     1      55.992 -36.676  20.873  1.00  0.00     0.001 A 
ATOM      5  C   UNL     1      54.840 -36.598  20.085  1.00  0.00     0.011 A 
ATOM      6  C   UNL     1      54.386 -35.370  19.566  1.00  0.00     0.012 A 
ENDROOT
BRANCH   1   7
ATOM      7  C   UNL     1      54.837 -32.887  19.282  1.00  0.00     0.160 C 
ATOM      8  O   UNL     1      53.816 -32.317  19.660  1.00  0.00    -0.294 OA
ATOM      9  C   UNL     1      55.800 -32.253  18.314  1.00  0.00     0.093 C 
ENDBRANCH   1   7
BRANCH   6  10
ATOM     10  C   UNL     1      53.137 -35.345  18.810  1.00  0.00     0.084 A 
ATOM     11  N   UNL     1      51.986 -35.593  19.486  1.00  0.00    -0.236 NA
ATOM     12  C   UNL     1      53.079 -35.047  17.442  1.00  0.00     0.045 A 
ATOM     13  C   UNL     1      50.829 -35.559  18.797  1.00  0.00     0.224 A 
ATOM     14  C   UNL     1      53.994 -34.719  16.400  1.00  0.00     0.032 A 
ATOM     15  C   UNL     1      51.815 -35.049  16.874  1.00  0.00     0.141 A 
ATOM     16  N   UNL     1      50.650 -35.300  17.490  1.00  0.00    -0.219 NA
ATOM     17  C   UNL     1      53.263 -34.542  15.243  1.00  0.00     0.085 A 
ATOM     18  N   UNL     1      51.941 -34.746  15.547  1.00  0.00    -0.346 N 
ATOM     19  H   UNL     1      51.163 -34.687  14.906  1.00  0.00     0.167 HD
ENDBRANCH   6  10
TORSDOF 2
ENDMDL
MODEL 3
REMARK minimizedAffinity -7.24899149
REMARK CNNscore 0.676359177
REMARK CNNaffinity 5.93195534
REMARK SMILES CC(=O)c1ccccc1-c1ncnc2[nH]ccc12
REMARK SMILES IDX 4 1 5 2 6 3 7 4 8 5 9 6 2 7 3 8 1 9 10 10 11 11 18 12 12 13
REMARK SMILES IDX 17 14 14 15 13 16 16 17 15 18
REMARK H PARENT 15 19
ROOT
ATOM      1  C   UNL     1      51.747 -35.110  16.914  1.00  0.00     0.027 A 
ATOM      2  C   UNL     1      50.963 -35.019  15.752  1.00  0.00     0.012 A 
ATOM      3  C   UNL     1      51.532 -34.590  14.555  1.00  0.00     0.001 A 
ATOM      4  C   UNL     1      52.880 -34.251  14.514  1.00  0.00     0.001 A 
ATOM      5  C   UNL     1      53.654 -34.320  15.675  1.00  0.00     0.011 A 
ATOM      6  C   UNL     1      53.102 -34.730  16.905  1.00  0.00     0.012 A 
ENDROOT
BRANCH   1   7
ATOM      7  C   UNL     1      51.066 -35.634  18.122  1.00  0.00     0.160 C 
ATOM      8  O   UNL     1      50.703 -36.808  18.141  1.00  0.00    -0.294 OA
ATOM      9  C   UNL     1      50.887 -34.719  19.304  1.00  0.00     0.093 C 
ENDBRANCH   1   7
BRANCH   6  10
ATOM     10  C   UNL     1      53.947 -34.711  18.096  1.00  0.00     0.084 A 
ATOM     11  N   UNL     1      53.834 -35.747  18.966  1.00  0.00    -0.236 NA
ATOM     12  C   UNL     1      54.880 -33.698  18.353  1.00  0.00     0.045 A 
ATOM     13  C   UNL     1      54.620 -35.743  20.060  1.00  0.00     0.224 A 
ATOM     14  C   UNL     1      55.324 -32.497  17.729  1.00  0.00     0.032 A 
ATOM     15  C   UNL     1      55.616 -33.834  19.520  1.00  0.00     0.141 A 
ATOM     16  N   UNL     1      55.535 -34.826  20.418  1.00  0.00    -0.219 NA
ATOM     17  C   UNL     1      56.300 -31.944  18.532  1.00  0.00     0.085 A 
ATOM     18  N   UNL     1      56.467 -32.768  19.616  1.00  0.00    -0.346 N 
ATOM     19  H   UNL     1      57.112 -32.629  20.380  1.00  0.00     0.167 HD
ENDBRANCH   6  10
TORSDOF 2
ENDMDL
MODEL 4
REMARK minimizedAffinity -6.72362518
REMARK CNNscore 0.594922066
REMARK CNNaffinity 5.10093546
REMARK SMILES CC(=O)c1ccccc1-c1ncnc2[nH]ccc12
REMARK SMILES IDX 4 1 5 2 6 3 7 4 8 5 9 6 2 7 3 8 1 9 10 10 11 11 18 12 12 13
REMARK SMILES IDX 17 14 14 15 13 16 16 17 15 18
REMARK H PARENT 15 19
ROOT
ATOM      1  C   UNL     1      59.521 -26.887  26.168  1.00  0.00     0.027 A 
ATOM      2  C   UNL     1      60.518 -26.236  26.915  1.00  0.00     0.012 A 
ATOM      3  C   UNL     1      61.490 -26.978  27.582  1.00  0.00     0.001 A 
ATOM      4  C   UNL     1      61.471 -28.366  27.508  1.00  0.00     0.001 A 
ATOM      5  C   UNL     1      60.466 -29.014  26.784  1.00  0.00     0.011 A 
ATOM      6  C   UNL     1      59.458 -28.292  26.116  1.00  0.00     0.012 A 
ENDROOT
BRANCH   1   7
ATOM      7  C   UNL     1      58.569 -26.010  25.446  1.00  0.00     0.160 C 
ATOM      8  O   UNL     1      58.805 -25.706  24.279  1.00  0.00    -0.294 OA
ATOM      9  C   UNL     1      57.319 -25.563  26.155  1.00  0.00     0.093 C 
ENDBRANCH   1   7
BRANCH   6  10
ATOM     10  C   UNL     1      58.397 -29.031  25.437  1.00  0.00     0.084 A 
ATOM     11  N   UNL     1      58.606 -29.391  24.145  1.00  0.00    -0.236 NA
ATOM     12  C   UNL     1      57.204 -29.405  26.070  1.00  0.00     0.045 A 
ATOM     13  C   UNL     1      57.636 -30.084  23.517  1.00  0.00     0.224 A 
ATOM     14  C   UNL     1      56.608 -29.263  27.356  1.00  0.00     0.032 A 
ATOM     15  C   UNL     1      56.303 -30.116  25.292  1.00  0.00     0.141 A 
ATOM     16  N   UNL     1      56.453 -30.485  24.011  1.00  0.00    -0.219 NA
ATOM     17  C   UNL     1      55.375 -29.879  27.316  1.00  0.00     0.085 A 
ATOM     18  N   UNL     1      55.203 -30.393  26.056  1.00  0.00    -0.346 N 
ATOM     19  H   UNL     1      54.398 -30.901  25.721  1.00  0.00     0.167 HD
ENDBRANCH   6  10
TORSDOF 2
ENDMDL
MODEL 5
REMARK minimizedAffinity -8.67635727
REMARK CNNscore 0.55110383
REMARK CNNaffinity 5.81649065
REMARK SMILES CC(=O)c1ccccc1-c1ncnc2[nH]ccc12
REMARK SMILES IDX 4 1 5 2 6 3 7 4 8 5 9 6 2 7 3 8 1 9 10 10 11 11 18 12 12 13
REMARK SMILES IDX 17 14 14 15 13 16 16 17 15 18
REMARK H PARENT 15 19
ROOT
ATOM      1  C   UNL     1      53.500 -34.489  17.512  1.00  0.00     0.027 A 
ATOM      2  C   UNL     1      52.424 -34.980  16.754  1.00  0.00     0.012 A 
ATOM      3  C   UNL     1      51.300 -35.504  17.390  1.00  0.00     0.001 A 
ATOM      4  C   UNL     1      51.248 -35.540  18.779  1.00  0.00     0.001 A 
ATOM      5  C   UNL     1      52.329 -35.073  19.533  1.00  0.00     0.011 A 
ATOM      6  C   UNL     1      53.486 -34.557  18.918  1.00  0.00     0.012 A 
ENDROOT
BRANCH   1   7
ATOM      7  C   UNL     1      54.623 -33.897  16.745  1.00  0.00     0.160 C 
ATOM      8  O   UNL     1      55.174 -32.888  17.178  1.00  0.00    -0.294 OA
ATOM      9  C   UNL     1      55.079 -34.586  15.486  1.00  0.00     0.093 C 
ENDBRANCH   1   7
BRANCH   6  10
ATOM     10  C   UNL     1      54.608 -34.152  19.760  1.00  0.00     0.084 A 
ATOM     11  N   UNL     1      54.850 -32.823  19.891  1.00  0.00    -0.236 NA
ATOM     12  C   UNL     1      55.410 -35.067  20.454  1.00  0.00     0.045 A 
ATOM     13  C   UNL     1      55.876 -32.441  20.677  1.00  0.00     0.224 A 
ATOM     14  C   UNL     1      55.492 -36.480  20.614  1.00  0.00     0.032 A 
ATOM     15  C   UNL     1      56.426 -34.521  21.223  1.00  0.00     0.141 A 
ATOM     16  N   UNL     1      56.717 -33.221  21.376  1.00  0.00    -0.219 NA
ATOM     17  C   UNL     1      56.549 -36.745  21.460  1.00  0.00     0.085 A 
ATOM     18  N   UNL     1      57.107 -35.545  21.823  1.00  0.00    -0.346 N 
ATOM     19  H   UNL     1      57.898 -35.413  22.435  1.00  0.00     0.167 HD
ENDBRANCH   6  10
TORSDOF 2
ENDMDL
MODEL 6
REMARK minimizedAffinity -7.04595804
REMARK CNNscore 0.481000334
REMARK CNNaffinity 5.96775007
REMARK SMILES CC(=O)c1ccccc1-c1ncnc2[nH]ccc12
REMARK SMILES IDX 4 1 5 2 6 3 7 4 8 5 9 6 2 7 3 8 1 9 10 10 11 11 18 12 12 13
REMARK SMILES IDX 17 14 14 15 13 16 16 17 15 18
REMARK H PARENT 15 19
ROOT
ATOM      1  C   UNL     1      55.791 -33.647  19.256  1.00  0.00     0.027 A 
ATOM      2  C   UNL     1      56.473 -33.632  20.483  1.00  0.00     0.012 A 
ATOM      3  C   UNL     1      56.199 -34.598  21.450  1.00  0.00     0.001 A 
ATOM      4  C   UNL     1      55.246 -35.577  21.195  1.00  0.00     0.001 A 
ATOM      5  C   UNL     1      54.550 -35.578  19.983  1.00  0.00     0.011 A 
ATOM      6  C   UNL     1      54.791 -34.603  18.995  1.00  0.00     0.012 A 
ENDROOT
BRANCH   1   7
ATOM      7  C   UNL     1      56.196 -32.616  18.271  1.00  0.00     0.160 C 
ATOM      8  O   UNL     1      55.644 -31.518  18.295  1.00  0.00    -0.294 OA
ATOM      9  C   UNL     1      57.306 -32.936  17.306  1.00  0.00     0.093 C 
ENDBRANCH   1   7
BRANCH   6  10
ATOM     10  C   UNL     1      53.980 -34.618  17.780  1.00  0.00     0.084 A 
ATOM     11  N   UNL     1      54.591 -34.301  16.611  1.00  0.00    -0.236 NA
ATOM     12  C   UNL     1      52.625 -34.974  17.773  1.00  0.00     0.045 A 
ATOM     13  C   UNL     1      53.853 -34.326  15.485  1.00  0.00     0.224 A 
ATOM     14  C   UNL     1      51.641 -35.378  18.720  1.00  0.00     0.032 A 
ATOM     15  C   UNL     1      52.000 -34.953  16.535  1.00  0.00     0.141 A 
ATOM     16  N   UNL     1      52.551 -34.635  15.355  1.00  0.00    -0.219 NA
ATOM     17  C   UNL     1      50.460 -35.581  18.035  1.00  0.00     0.085 A 
ATOM     18  N   UNL     1      50.694 -35.318  16.709  1.00  0.00    -0.346 N 
ATOM     19  H   UNL     1      50.021 -35.379  15.959  1.00  0.00     0.167 HD
ENDBRANCH   6  10
TORSDOF 2
ENDMDL
MODEL 7
REMARK minimizedAffinity -5.74931049
REMARK CNNscore 0.396382332
REMARK CNNaffinity 5.13477468
REMARK SMILES CC(=O)c1ccccc1-c1ncnc2[nH]ccc12
REMARK SMILES IDX 4 1 5 2 6 3 7 4 8 5 9 6 2 7 3 8 1 9 10 10 11 11 18 12 12 13
REMARK SMILES IDX 17 14 14 15 13 16 16 17 15 18
REMARK H PARENT 15 19
ROOT
ATOM      1  C   UNL     1      60.025 -26.755  26.355  1.00  0.00     0.027 A 
ATOM      2  C   UNL     1      61.296 -26.781  26.952  1.00  0.00     0.012 A 
ATOM      3  C   UNL     1      61.783 -27.959  27.513  1.00  0.00     0.001 A 
ATOM      4  C   UNL     1      61.004 -29.111  27.483  1.00  0.00     0.001 A 
ATOM      5  C   UNL     1      59.730 -29.079  26.911  1.00  0.00     0.011 A 
ATOM      6  C   UNL     1      59.202 -27.897  26.353  1.00  0.00     0.012 A 
ENDROOT
BRANCH   1   7
ATOM      7  C   UNL     1      59.622 -25.471  25.732  1.00  0.00     0.160 C 
ATOM      8  O   UNL     1      58.993 -24.654  26.401  1.00  0.00    -0.294 OA
ATOM      9  C   UNL     1      60.043 -25.194  24.314  1.00  0.00     0.093 C 
ENDBRANCH   1   7
BRANCH   6  10
ATOM     10  C   UNL     1      57.837 -27.913  25.835  1.00  0.00     0.084 A 
ATOM     11  N   UNL     1      57.557 -27.114  24.774  1.00  0.00    -0.236 NA
ATOM     12  C   UNL     1      56.832 -28.734  26.361  1.00  0.00     0.045 A 
ATOM     13  C   UNL     1      56.303 -27.133  24.283  1.00  0.00     0.224 A 
ATOM     14  C   UNL     1      56.700 -29.696  27.404  1.00  0.00     0.032 A 
ATOM     15  C   UNL     1      55.592 -28.642  25.747  1.00  0.00     0.141 A 
ATOM     16  N   UNL     1      55.258 -27.862  24.709  1.00  0.00    -0.219 NA
ATOM     17  C   UNL     1      55.397 -30.147  27.394  1.00  0.00     0.085 A 
ATOM     18  N   UNL     1      54.736 -29.499  26.383  1.00  0.00    -0.346 N 
ATOM     19  H   UNL     1      53.766 -29.618  26.127  1.00  0.00     0.167 HD
ENDBRANCH   6  10
TORSDOF 2
ENDMDL
MODEL 8
REMARK minimizedAffinity -7.46792412
REMARK CNNscore 0.375420988
REMARK CNNaffinity 5.91340685
REMARK SMILES CC(=O)c1ccccc1-c1ncnc2[nH]ccc12
REMARK SMILES IDX 4 1 5 2 6 3 7 4 8 5 9 6 2 7 3 8 1 9 10 10 11 11 18 12 12 13
REMARK SMILES IDX 17 14 14 15 13 16 16 17 15 18
REMARK H PARENT 15 19
ROOT
ATOM      1  C   UNL     1      56.470 -33.670  22.054  1.00  0.00     0.027 A 
ATOM      2  C   UNL     1      57.478 -33.847  23.016  1.00  0.00     0.012 A 
ATOM      3  C   UNL     1      58.109 -35.081  23.151  1.00  0.00     0.001 A 
ATOM      4  C   UNL     1      57.737 -36.140  22.330  1.00  0.00     0.001 A 
ATOM      5  C   UNL     1      56.718 -35.970  21.389  1.00  0.00     0.011 A 
ATOM      6  C   UNL     1      56.047 -34.740  21.243  1.00  0.00     0.012 A 
ENDROOT
BRANCH   1   7
ATOM      7  C   UNL     1      55.902 -32.304  21.947  1.00  0.00     0.160 C 
ATOM      8  O   UNL     1      56.035 -31.684  20.895  1.00  0.00    -0.294 OA
ATOM      9  C   UNL     1      55.137 -31.746  23.118  1.00  0.00     0.093 C 
ENDBRANCH   1   7
BRANCH   6  10
ATOM     10  C   UNL     1      54.944 -34.649  20.291  1.00  0.00     0.084 A 
ATOM     11  N   UNL     1      53.722 -35.079  20.698  1.00  0.00    -0.236 NA
ATOM     12  C   UNL     1      55.089 -34.111  19.006  1.00  0.00     0.045 A 
ATOM     13  C   UNL     1      52.697 -34.985  19.829  1.00  0.00     0.224 A 
ATOM     14  C   UNL     1      56.132 -33.549  18.215  1.00  0.00     0.032 A 
ATOM     15  C   UNL     1      53.942 -34.081  18.228  1.00  0.00     0.141 A 
ATOM     16  N   UNL     1      52.718 -34.504  18.574  1.00  0.00    -0.219 NA
ATOM     17  C   UNL     1      55.592 -33.206  16.993  1.00  0.00     0.085 A 
ATOM     18  N   UNL     1      54.261 -33.535  17.015  1.00  0.00    -0.346 N 
ATOM     19  H   UNL     1      53.598 -33.405  16.265  1.00  0.00     0.167 HD
ENDBRANCH   6  10
TORSDOF 2
ENDMDL
MODEL 9
REMARK minimizedAffinity -6.22792387
REMARK CNNscore 0.372507095
REMARK CNNaffinity 5.25018787
REMARK SMILES CC(=O)c1ccccc1-c1ncnc2[nH]ccc12
REMARK SMILES IDX 4 1 5 2 6 3 7 4 8 5 9 6 2 7 3 8 1 9 10 10 11 11 18 12 12 13
REMARK SMILES IDX 17 14 14 15 13 16 16 17 15 18
REMARK H PARENT 15 19
ROOT
ATOM      1  C   UNL     1      60.060 -27.516  26.472  1.00  0.00     0.027 A 
ATOM      2  C   UNL     1      61.165 -26.714  26.802  1.00  0.00     0.012 A 
ATOM      3  C   UNL     1      61.561 -25.682  25.954  1.00  0.00     0.001 A 
ATOM      4  C   UNL     1      60.856 -25.448  24.777  1.00  0.00     0.001 A 
ATOM      5  C   UNL     1      59.771 -26.260  24.438  1.00  0.00     0.011 A 
ATOM      6  C   UNL     1      59.361 -27.324  25.266  1.00  0.00     0.012 A 
ENDROOT
BRANCH   1   7
ATOM      7  C   UNL     1      59.682 -28.548  27.468  1.00  0.00     0.160 C 
ATOM      8  O   UNL     1      60.375 -29.557  27.573  1.00  0.00    -0.294 OA
ATOM      9  C   UNL     1      58.488 -28.297  28.349  1.00  0.00     0.093 C 
ENDBRANCH   1   7
BRANCH   6  10
ATOM     10  C   UNL     1      58.264 -28.179  24.820  1.00  0.00     0.084 A 
ATOM     11  N   UNL     1      58.582 -29.311  24.141  1.00  0.00    -0.236 NA
ATOM     12  C   UNL     1      56.919 -27.897  25.092  1.00  0.00     0.045 A 
ATOM     13  C   UNL     1      57.576 -30.110  23.738  1.00  0.00     0.224 A 
ATOM     14  C   UNL     1      56.173 -26.883  25.759  1.00  0.00     0.032 A 
ATOM     15  C   UNL     1      55.998 -28.816  24.613  1.00  0.00     0.141 A 
ATOM     16  N   UNL     1      56.257 -29.939  23.927  1.00  0.00    -0.219 NA
ATOM     17  C   UNL     1      54.837 -27.212  25.659  1.00  0.00     0.085 A 
ATOM     18  N   UNL     1      54.747 -28.389  24.960  1.00  0.00    -0.346 N 
ATOM     19  H   UNL     1      53.898 -28.882  24.725  1.00  0.00     0.167 HD
ENDBRANCH   6  10
TORSDOF 2
ENDMDL
