MODEL 1
REMARK minimizedAffinity -9.70182991
REMARK CNNscore 0.987577498
REMARK CNNaffinity 6.79673004
REMARK SMILES C=Cc1ccc(-c2cccc3nnc(N)n23)cc1
REMARK SMILES IDX 7 1 8 2 9 3 10 4 11 5 12 6 13 7 14 8 16 9 6 10 3 11 4 12
REMARK SMILES IDX 18 13 5 14 17 15 2 16 1 17 15 18
REMARK H PARENT 15 19 15 20
ROOT
ATOM      1  C   UNL     1      53.889 -34.462  18.043  1.00  0.00     0.058 A 
ATOM      2  C   UNL     1      54.465 -34.172  16.856  1.00  0.00     0.027 A 
ATOM      3  C   UNL     1      53.707 -34.325  15.626  1.00  0.00     0.006 A 
ATOM      4  C   UNL     1      52.432 -34.753  15.639  1.00  0.00     0.050 A 
ATOM      5  C   UNL     1      51.808 -35.063  16.877  1.00  0.00     0.162 A 
ATOM      6  N   UNL     1      50.600 -35.492  17.160  1.00  0.00    -0.128 NA
ATOM      7  N   UNL     1      50.516 -35.628  18.524  1.00  0.00    -0.111 NA
ATOM      8  C   UNL     1      51.671 -35.290  19.054  1.00  0.00     0.226 A 
ATOM      9  N   UNL     1      52.551 -34.910  18.045  1.00  0.00    -0.262 N 
ENDROOT
BRANCH   1  10
ATOM     10  C   UNL     1      54.693 -34.287  19.259  1.00  0.00    -0.001 A 
ATOM     11  C   UNL     1      56.217 -33.953  21.608  1.00  0.00    -0.026 A 
ATOM     12  C   UNL     1      55.588 -32.858  21.004  1.00  0.00     0.009 A 
ATOM     13  C   UNL     1      56.096 -35.213  21.007  1.00  0.00     0.009 A 
ATOM     14  C   UNL     1      54.829 -33.022  19.840  1.00  0.00     0.011 A 
ATOM     15  C   UNL     1      55.338 -35.382  19.845  1.00  0.00     0.011 A 
BRANCH  11  16
ATOM     16  C   UNL     1      57.045 -33.819  22.814  1.00  0.00     0.000 C 
ATOM     17  C   UNL     1      58.030 -34.659  23.156  1.00  0.00     0.009 C 
ENDBRANCH  11  16
ENDBRANCH   1  10
BRANCH   8  18
ATOM     18  N   UNL     1      51.969 -35.305  20.370  1.00  0.00    -0.368 N 
ATOM     19  H   UNL     1      52.929 -35.412  20.681  1.00  0.00     0.159 HD
ATOM     20  H   UNL     1      51.309 -35.807  20.958  1.00  0.00     0.159 HD
ENDBRANCH   8  18
TORSDOF 3
ENDMDL
MODEL 2
REMARK minimizedAffinity -9.5501976
REMARK CNNscore 0.718382657
REMARK CNNaffinity 5.83632135
REMARK SMILES C=Cc1ccc(-c2cccc3nnc(N)n23)cc1
REMARK SMILES IDX 7 1 8 2 9 3 10 4 11 5 12 6 13 7 14 8 16 9 6 10 3 11 4 12
REMARK SMILES IDX 18 13 5 14 17 15 2 16 1 17 15 18
REMARK H PARENT 15 19 15 20
ROOT
ATOM      1  C   UNL     1      54.325 -33.879  17.646  1.00  0.00     0.058 A 
ATOM      2  C   UNL     1      55.370 -33.231  17.084  1.00  0.00     0.027 A 
ATOM      3  C   UNL     1      56.486 -32.803  17.910  1.00  0.00     0.006 A 
ATOM      4  C   UNL     1      56.506 -33.038  19.235  1.00  0.00     0.050 A 
ATOM      5  C   UNL     1      55.418 -33.718  19.844  1.00  0.00     0.162 A 
ATOM      6  N   UNL     1      55.195 -34.064  21.091  1.00  0.00    -0.128 NA
ATOM      7  N   UNL     1      53.982 -34.707  21.134  1.00  0.00    -0.111 NA
ATOM      8  C   UNL     1      53.478 -34.739  19.919  1.00  0.00     0.226 A 
ATOM      9  N   UNL     1      54.357 -34.120  19.036  1.00  0.00    -0.262 N 
ENDROOT
BRANCH   1  10
ATOM     10  C   UNL     1      53.223 -34.296  16.770  1.00  0.00    -0.001 A 
ATOM     11  C   UNL     1      51.094 -35.079  15.095  1.00  0.00    -0.026 A 
ATOM     12  C   UNL     1      51.135 -35.485  16.434  1.00  0.00     0.009 A 
ATOM     13  C   UNL     1      52.146 -34.299  14.597  1.00  0.00     0.009 A 
ATOM     14  C   UNL     1      52.189 -35.096  17.267  1.00  0.00     0.011 A 
ATOM     15  C   UNL     1      53.200 -33.906  15.426  1.00  0.00     0.011 A 
BRANCH  11  16
ATOM     16  C   UNL     1      50.021 -35.490  14.180  1.00  0.00     0.000 C 
ATOM     17  C   UNL     1      50.091 -35.415  12.845  1.00  0.00     0.009 C 
ENDBRANCH  11  16
ENDBRANCH   1  10
BRANCH   8  18
ATOM     18  N   UNL     1      52.293 -35.283  19.572  1.00  0.00    -0.368 N 
ATOM     19  H   UNL     1      51.795 -34.955  18.751  1.00  0.00     0.159 HD
ATOM     20  H   UNL     1      51.671 -35.499  20.346  1.00  0.00     0.159 HD
ENDBRANCH   8  18
TORSDOF 3
ENDMDL
MODEL 3
REMARK minimizedAffinity -6.74877787
REMARK CNNscore 0.490826398
REMARK CNNaffinity 5.24456453
REMARK SMILES C=Cc1ccc(-c2cccc3nnc(N)n23)cc1
REMARK SMILES IDX 7 1 8 2 9 3 10 4 11 5 12 6 13 7 14 8 16 9 6 10 3 11 4 12
REMARK SMILES IDX 18 13 5 14 17 15 2 16 1 17 15 18
REMARK H PARENT 15 19 15 20
ROOT
ATOM      1  C   UNL     1      57.697 -27.763  26.243  1.00  0.00     0.058 A 
ATOM      2  C   UNL     1      56.645 -27.322  26.968  1.00  0.00     0.027 A 
ATOM      3  C   UNL     1      55.299 -27.753  26.628  1.00  0.00     0.006 A 
ATOM      4  C   UNL     1      55.071 -28.589  25.600  1.00  0.00     0.050 A 
ATOM      5  C   UNL     1      56.163 -29.065  24.826  1.00  0.00     0.162 A 
ATOM      6  N   UNL     1      56.212 -29.871  23.791  1.00  0.00    -0.128 NA
ATOM      7  N   UNL     1      57.530 -30.001  23.427  1.00  0.00    -0.111 NA
ATOM      8  C   UNL     1      58.266 -29.270  24.235  1.00  0.00     0.226 A 
ATOM      9  N   UNL     1      57.446 -28.640  25.167  1.00  0.00    -0.262 N 
ENDROOT
BRANCH   1  10
ATOM     10  C   UNL     1      59.038 -27.305  26.627  1.00  0.00    -0.001 A 
ATOM     11  C   UNL     1      61.622 -26.435  27.346  1.00  0.00    -0.026 A 
ATOM     12  C   UNL     1      61.133 -27.668  27.795  1.00  0.00     0.009 A 
ATOM     13  C   UNL     1      60.792 -25.631  26.554  1.00  0.00     0.009 A 
ATOM     14  C   UNL     1      59.852 -28.102  27.438  1.00  0.00     0.011 A 
ATOM     15  C   UNL     1      59.511 -26.061  26.193  1.00  0.00     0.011 A 
BRANCH  11  16
ATOM     16  C   UNL     1      62.949 -25.931  27.721  1.00  0.00     0.000 C 
ATOM     17  C   UNL     1      63.432 -25.917  28.970  1.00  0.00     0.009 C 
ENDBRANCH  11  16
ENDBRANCH   1  10
BRANCH   8  18
ATOM     18  N   UNL     1      59.608 -29.141  24.179  1.00  0.00    -0.368 N 
ATOM     19  H   UNL     1      60.062 -28.311  24.545  1.00  0.00     0.159 HD
ATOM     20  H   UNL     1      60.041 -29.479  23.324  1.00  0.00     0.159 HD
ENDBRANCH   8  18
TORSDOF 3
ENDMDL
MODEL 4
REMARK minimizedAffinity -8.17569733
REMARK CNNscore 0.473238528
REMARK CNNaffinity 5.58593369
REMARK SMILES C=Cc1ccc(-c2cccc3nnc(N)n23)cc1
REMARK SMILES IDX 7 1 8 2 9 3 10 4 11 5 12 6 13 7 14 8 16 9 6 10 3 11 4 12
REMARK SMILES IDX 18 13 5 14 17 15 2 16 1 17 15 18
REMARK H PARENT 15 19 15 20
ROOT
ATOM      1  C   UNL     1      53.783 -34.452  18.701  1.00  0.00     0.058 A 
ATOM      2  C   UNL     1      53.397 -34.782  19.953  1.00  0.00     0.027 A 
ATOM      3  C   UNL     1      54.274 -34.504  21.079  1.00  0.00     0.006 A 
ATOM      4  C   UNL     1      55.473 -33.919  20.904  1.00  0.00     0.050 A 
ATOM      5  C   UNL     1      55.896 -33.565  19.595  1.00  0.00     0.162 A 
ATOM      6  N   UNL     1      56.997 -32.996  19.160  1.00  0.00    -0.128 NA
ATOM      7  N   UNL     1      56.894 -32.879  17.796  1.00  0.00    -0.111 NA
ATOM      8  C   UNL     1      55.739 -33.382  17.415  1.00  0.00     0.226 A 
ATOM      9  N   UNL     1      55.043 -33.839  18.529  1.00  0.00    -0.262 N 
ENDROOT
BRANCH   1  10
ATOM     10  C   UNL     1      52.862 -34.748  17.597  1.00  0.00    -0.001 A 
ATOM     11  C   UNL     1      51.080 -35.296  15.482  1.00  0.00    -0.026 A 
ATOM     12  C   UNL     1      50.829 -35.783  16.770  1.00  0.00     0.009 A 
ATOM     13  C   UNL     1      52.248 -34.555  15.258  1.00  0.00     0.009 A 
ATOM     14  C   UNL     1      51.710 -35.509  17.821  1.00  0.00     0.011 A 
ATOM     15  C   UNL     1      53.131 -34.278  16.306  1.00  0.00     0.011 A 
BRANCH  11  16
ATOM     16  C   UNL     1      50.195 -35.584  14.345  1.00  0.00     0.000 C 
ATOM     17  C   UNL     1      50.464 -35.266  13.073  1.00  0.00     0.009 C 
ENDBRANCH  11  16
ENDBRANCH   1  10
BRANCH   8  18
ATOM     18  N   UNL     1      55.290 -33.449  16.144  1.00  0.00    -0.368 N 
ATOM     19  H   UNL     1      54.616 -34.158  15.873  1.00  0.00     0.159 HD
ATOM     20  H   UNL     1      55.989 -33.280  15.427  1.00  0.00     0.159 HD
ENDBRANCH   8  18
TORSDOF 3
ENDMDL
MODEL 5
REMARK minimizedAffinity -9.19532108
REMARK CNNscore 0.435153097
REMARK CNNaffinity 5.66594887
REMARK SMILES C=Cc1ccc(-c2cccc3nnc(N)n23)cc1
REMARK SMILES IDX 7 1 8 2 9 3 10 4 11 5 12 6 13 7 14 8 16 9 6 10 3 11 4 12
REMARK SMILES IDX 18 13 5 14 17 15 2 16 1 17 15 18
REMARK H PARENT 15 19 15 20
ROOT
ATOM      1  C   UNL     1      53.044 -34.872  18.805  1.00  0.00     0.058 A 
ATOM      2  C   UNL     1      51.877 -35.380  19.257  1.00  0.00     0.027 A 
ATOM      3  C   UNL     1      50.808 -35.684  18.320  1.00  0.00     0.006 A 
ATOM      4  C   UNL     1      50.953 -35.472  17.000  1.00  0.00     0.050 A 
ATOM      5  C   UNL     1      52.173 -34.939  16.505  1.00  0.00     0.162 A 
ATOM      6  N   UNL     1      52.564 -34.642  15.287  1.00  0.00    -0.128 NA
ATOM      7  N   UNL     1      53.845 -34.156  15.368  1.00  0.00    -0.111 NA
ATOM      8  C   UNL     1      54.218 -34.156  16.629  1.00  0.00     0.226 A 
ATOM      9  N   UNL     1      53.186 -34.653  17.418  1.00  0.00    -0.262 N 
ENDROOT
BRANCH   1  10
ATOM     10  C   UNL     1      54.096 -34.585  19.788  1.00  0.00    -0.001 A 
ATOM     11  C   UNL     1      56.103 -34.041  21.693  1.00  0.00    -0.026 A 
ATOM     12  C   UNL     1      55.171 -33.058  21.338  1.00  0.00     0.009 A 
ATOM     13  C   UNL     1      56.035 -35.290  21.063  1.00  0.00     0.009 A 
ATOM     14  C   UNL     1      54.173 -33.327  20.395  1.00  0.00     0.011 A 
ATOM     15  C   UNL     1      55.039 -35.564  20.121  1.00  0.00     0.011 A 
BRANCH  11  16
ATOM     16  C   UNL     1      57.182 -33.790  22.657  1.00  0.00     0.000 C 
ATOM     17  C   UNL     1      58.025 -34.725  23.113  1.00  0.00     0.009 C 
ENDBRANCH  11  16
ENDBRANCH   1  10
BRANCH   8  18
ATOM     18  N   UNL     1      55.413 -33.739  17.097  1.00  0.00    -0.368 N 
ATOM     19  H   UNL     1      55.505 -33.404  18.051  1.00  0.00     0.159 HD
ATOM     20  H   UNL     1      55.974 -33.205  16.440  1.00  0.00     0.159 HD
ENDBRANCH   8  18
TORSDOF 3
ENDMDL
MODEL 6
REMARK minimizedAffinity -7.12061405
REMARK CNNscore 0.391342491
REMARK CNNaffinity 5.24858522
REMARK SMILES C=Cc1ccc(-c2cccc3nnc(N)n23)cc1
REMARK SMILES IDX 7 1 8 2 9 3 10 4 11 5 12 6 13 7 14 8 16 9 6 10 3 11 4 12
REMARK SMILES IDX 18 13 5 14 17 15 2 16 1 17 15 18
REMARK H PARENT 15 19 15 20
ROOT
ATOM      1  C   UNL     1      57.865 -29.024  26.526  1.00  0.00     0.058 A 
ATOM      2  C   UNL     1      56.918 -29.067  27.489  1.00  0.00     0.027 A 
ATOM      3  C   UNL     1      55.599 -29.597  27.185  1.00  0.00     0.006 A 
ATOM      4  C   UNL     1      55.295 -30.054  25.957  1.00  0.00     0.050 A 
ATOM      5  C   UNL     1      56.277 -30.018  24.931  1.00  0.00     0.162 A 
ATOM      6  N   UNL     1      56.238 -30.392  23.673  1.00  0.00    -0.128 NA
ATOM      7  N   UNL     1      57.470 -30.138  23.125  1.00  0.00    -0.111 NA
ATOM      8  C   UNL     1      58.243 -29.608  24.048  1.00  0.00     0.226 A 
ATOM      9  N   UNL     1      57.535 -29.505  25.241  1.00  0.00    -0.262 N 
ENDROOT
BRANCH   1  10
ATOM     10  C   UNL     1      59.183 -28.484  26.882  1.00  0.00    -0.001 A 
ATOM     11  C   UNL     1      61.708 -27.444  27.586  1.00  0.00    -0.026 A 
ATOM     12  C   UNL     1      60.675 -26.593  27.174  1.00  0.00     0.009 A 
ATOM     13  C   UNL     1      61.470 -28.825  27.615  1.00  0.00     0.009 A 
ATOM     14  C   UNL     1      59.422 -27.107  26.827  1.00  0.00     0.011 A 
ATOM     15  C   UNL     1      60.218 -29.343  27.270  1.00  0.00     0.011 A 
BRANCH  11  16
ATOM     16  C   UNL     1      63.046 -26.948  27.932  1.00  0.00     0.000 C 
ATOM     17  C   UNL     1      63.292 -26.001  28.846  1.00  0.00     0.009 C 
ENDBRANCH  11  16
ENDBRANCH   1  10
BRANCH   8  18
ATOM     18  N   UNL     1      59.524 -29.219  23.876  1.00  0.00    -0.368 N 
ATOM     19  H   UNL     1      59.926 -28.497  24.464  1.00  0.00     0.159 HD
ATOM     20  H   UNL     1      59.830 -29.152  22.910  1.00  0.00     0.159 HD
ENDBRANCH   8  18
TORSDOF 3
ENDMDL
MODEL 7
REMARK minimizedAffinity -7.23580694
REMARK CNNscore 0.332507879
REMARK CNNaffinity 5.42076254
REMARK SMILES C=Cc1ccc(-c2cccc3nnc(N)n23)cc1
REMARK SMILES IDX 7 1 8 2 9 3 10 4 11 5 12 6 13 7 14 8 16 9 6 10 3 11 4 12
REMARK SMILES IDX 18 13 5 14 17 15 2 16 1 17 15 18
REMARK H PARENT 15 19 15 20
ROOT
ATOM      1  C   UNL     1      55.497 -33.082  21.752  1.00  0.00     0.058 A 
ATOM      2  C   UNL     1      54.486 -32.808  20.900  1.00  0.00     0.027 A 
ATOM      3  C   UNL     1      54.036 -33.821  19.959  1.00  0.00     0.006 A 
ATOM      4  C   UNL     1      54.606 -35.038  19.916  1.00  0.00     0.050 A 
ATOM      5  C   UNL     1      55.671 -35.346  20.805  1.00  0.00     0.162 A 
ATOM      6  N   UNL     1      56.386 -36.436  20.963  1.00  0.00    -0.128 NA
ATOM      7  N   UNL     1      57.290 -36.198  21.969  1.00  0.00    -0.111 NA
ATOM      8  C   UNL     1      57.122 -34.969  22.406  1.00  0.00     0.226 A 
ATOM      9  N   UNL     1      56.089 -34.362  21.699  1.00  0.00    -0.262 N 
ENDROOT
BRANCH   1  10
ATOM     10  C   UNL     1      55.914 -32.030  22.687  1.00  0.00    -0.001 A 
ATOM     11  C   UNL     1      56.704 -29.993  24.470  1.00  0.00    -0.026 A 
ATOM     12  C   UNL     1      57.517 -30.349  23.388  1.00  0.00     0.009 A 
ATOM     13  C   UNL     1      55.503 -30.687  24.665  1.00  0.00     0.009 A 
ATOM     14  C   UNL     1      57.126 -31.358  22.501  1.00  0.00     0.011 A 
ATOM     15  C   UNL     1      55.107 -31.695  23.781  1.00  0.00     0.011 A 
BRANCH  11  16
ATOM     16  C   UNL     1      57.091 -28.959  25.439  1.00  0.00     0.000 C 
ATOM     17  C   UNL     1      56.671 -28.915  26.710  1.00  0.00     0.009 C 
ENDBRANCH  11  16
ENDBRANCH   1  10
BRANCH   8  18
ATOM     18  N   UNL     1      57.836 -34.377  23.386  1.00  0.00    -0.368 N 
ATOM     19  H   UNL     1      57.934 -33.367  23.415  1.00  0.00     0.159 HD
ATOM     20  H   UNL     1      58.689 -34.860  23.654  1.00  0.00     0.159 HD
ENDBRANCH   8  18
TORSDOF 3
ENDMDL
MODEL 8
REMARK minimizedAffinity -8.72577095
REMARK CNNscore 0.32893306
REMARK CNNaffinity 5.52035379
REMARK SMILES C=Cc1ccc(-c2cccc3nnc(N)n23)cc1
REMARK SMILES IDX 7 1 8 2 9 3 10 4 11 5 12 6 13 7 14 8 16 9 6 10 3 11 4 12
REMARK SMILES IDX 18 13 5 14 17 15 2 16 1 17 15 18
REMARK H PARENT 15 19 15 20
ROOT
ATOM      1  C   UNL     1      55.743 -34.949  20.234  1.00  0.00     0.058 A 
ATOM      2  C   UNL     1      55.903 -36.248  20.571  1.00  0.00     0.027 A 
ATOM      3  C   UNL     1      56.659 -36.600  21.761  1.00  0.00     0.006 A 
ATOM      4  C   UNL     1      57.209 -35.656  22.545  1.00  0.00     0.050 A 
ATOM      5  C   UNL     1      57.052 -34.285  22.208  1.00  0.00     0.162 A 
ATOM      6  N   UNL     1      57.481 -33.189  22.792  1.00  0.00    -0.128 NA
ATOM      7  N   UNL     1      57.043 -32.122  22.048  1.00  0.00    -0.111 NA
ATOM      8  C   UNL     1      56.361 -32.577  21.019  1.00  0.00     0.226 A 
ATOM      9  N   UNL     1      56.325 -33.966  21.063  1.00  0.00    -0.262 N 
ENDROOT
BRANCH   1  10
ATOM     10  C   UNL     1      54.968 -34.641  19.026  1.00  0.00    -0.001 A 
ATOM     11  C   UNL     1      53.486 -34.070  16.696  1.00  0.00    -0.026 A 
ATOM     12  C   UNL     1      54.800 -33.608  16.837  1.00  0.00     0.009 A 
ATOM     13  C   UNL     1      52.913 -34.799  17.746  1.00  0.00     0.009 A 
ATOM     14  C   UNL     1      55.537 -33.892  17.991  1.00  0.00     0.011 A 
ATOM     15  C   UNL     1      53.647 -35.087  18.901  1.00  0.00     0.011 A 
BRANCH  11  16
ATOM     16  C   UNL     1      52.669 -33.770  15.512  1.00  0.00     0.000 C 
ATOM     17  C   UNL     1      51.500 -34.357  15.228  1.00  0.00     0.009 C 
ENDBRANCH  11  16
ENDBRANCH   1  10
BRANCH   8  18
ATOM     18  N   UNL     1      55.782 -31.821  20.061  1.00  0.00    -0.368 N 
ATOM     19  H   UNL     1      55.619 -32.200  19.134  1.00  0.00     0.159 HD
ATOM     20  H   UNL     1      56.075 -30.848  20.040  1.00  0.00     0.159 HD
ENDBRANCH   8  18
TORSDOF 3
ENDMDL
MODEL 9
REMARK minimizedAffinity -6.29368448
REMARK CNNscore 0.283573925
REMARK CNNaffinity 5.09452629
REMARK SMILES C=Cc1ccc(-c2cccc3nnc(N)n23)cc1
REMARK SMILES IDX 7 1 8 2 9 3 10 4 11 5 12 6 13 7 14 8 16 9 6 10 3 11 4 12
REMARK SMILES IDX 18 13 5 14 17 15 2 16 1 17 15 18
REMARK H PARENT 15 19 15 20
ROOT
ATOM      1  C   UNL     1      56.675 -28.317  24.982  1.00  0.00     0.058 A 
ATOM      2  C   UNL     1      55.771 -27.336  24.766  1.00  0.00     0.027 A 
ATOM      3  C   UNL     1      55.963 -26.028  25.370  1.00  0.00     0.006 A 
ATOM      4  C   UNL     1      57.029 -25.766  26.147  1.00  0.00     0.050 A 
ATOM      5  C   UNL     1      57.990 -26.784  26.387  1.00  0.00     0.162 A 
ATOM      6  N   UNL     1      59.097 -26.789  27.093  1.00  0.00    -0.128 NA
ATOM      7  N   UNL     1      59.654 -28.039  26.985  1.00  0.00    -0.111 NA
ATOM      8  C   UNL     1      58.881 -28.782  26.223  1.00  0.00     0.226 A 
ATOM      9  N   UNL     1      57.789 -28.031  25.799  1.00  0.00    -0.262 N 
ENDROOT
BRANCH   1  10
ATOM     10  C   UNL     1      56.441 -29.620  24.347  1.00  0.00    -0.001 A 
ATOM     11  C   UNL     1      56.006 -32.132  23.143  1.00  0.00    -0.026 A 
ATOM     12  C   UNL     1      57.121 -31.359  22.797  1.00  0.00     0.009 A 
ATOM     13  C   UNL     1      55.097 -31.621  24.078  1.00  0.00     0.009 A 
ATOM     14  C   UNL     1      57.340 -30.114  23.396  1.00  0.00     0.011 A 
ATOM     15  C   UNL     1      55.312 -30.377  24.679  1.00  0.00     0.011 A 
BRANCH  11  16
ATOM     16  C   UNL     1      55.725 -33.431  22.518  1.00  0.00     0.000 C 
ATOM     17  C   UNL     1      55.086 -33.591  21.352  1.00  0.00     0.009 C 
ENDBRANCH  11  16
ENDBRANCH   1  10
BRANCH   8  18
ATOM     18  N   UNL     1      59.102 -30.073  25.898  1.00  0.00    -0.368 N 
ATOM     19  H   UNL     1      58.328 -30.682  25.653  1.00  0.00     0.159 HD
ATOM     20  H   UNL     1      59.811 -30.544  26.451  1.00  0.00     0.159 HD
ENDBRANCH   8  18
TORSDOF 3
ENDMDL
