MODEL 1
REMARK minimizedAffinity -10.0397367
REMARK CNNscore 0.562970042
REMARK CNNaffinity 7.68951178
REMARK SMILES CC(=O)NCC(=O)N1[C@@H]2CC[C@H]1c1ccc(Nc3ncc(C(F)(F)F)c(NC4CCC4)n3)cc12
REMARK SMILES IDX 8 1 12 2 11 3 10 4 9 5 34 6 33 7 16 8 15 9 14 10 13 11 6 12
REMARK SMILES IDX 7 13 5 14 4 15 2 16 3 17 1 18 17 20 18 22 19 23 32 24 20 25
REMARK SMILES IDX 26 26 21 27 27 28 28 30 29 31 31 32 30 33 22 34 23 35 24 36
REMARK SMILES IDX 25 37
REMARK H PARENT 4 19 17 21 27 29
ROOT
ATOM      1  N   UNL     1      57.786 -27.630  26.960  1.00  0.00    -0.327 N 
ATOM      2  C   UNL     1      56.362 -27.947  26.878  1.00  0.00     0.116 C 
ATOM      3  C   UNL     1      55.871 -26.677  26.152  1.00  0.00     0.032 C 
ATOM      4  C   UNL     1      57.084 -26.321  25.223  1.00  0.00     0.032 C 
ATOM      5  C   UNL     1      58.096 -27.438  25.550  1.00  0.00     0.116 C 
ATOM      6  C   UNL     1      57.510 -28.725  24.998  1.00  0.00    -0.018 A 
ATOM      7  C   UNL     1      57.843 -29.509  23.914  1.00  0.00     0.032 A 
ATOM      8  C   UNL     1      57.073 -30.660  23.653  1.00  0.00     0.041 A 
ATOM      9  C   UNL     1      55.978 -30.952  24.502  1.00  0.00     0.026 A 
ATOM     10  C   UNL     1      55.639 -30.149  25.601  1.00  0.00     0.008 A 
ATOM     11  C   UNL     1      56.419 -29.043  25.835  1.00  0.00    -0.020 A 
ENDROOT
BRANCH   1  12
ATOM     12  C   UNL     1      58.703 -28.119  27.858  1.00  0.00     0.242 C 
ATOM     13  O   UNL     1      58.437 -29.030  28.646  1.00  0.00    -0.273 OA
BRANCH  12  14
ATOM     14  C   UNL     1      60.095 -27.490  27.808  1.00  0.00     0.216 C 
BRANCH  14  15
ATOM     15  N   UNL     1      60.650 -27.617  26.475  1.00  0.00    -0.347 N 
ATOM     16  C   UNL     1      61.989 -27.817  26.275  1.00  0.00     0.217 C 
ATOM     17  O   UNL     1      62.804 -27.869  27.191  1.00  0.00    -0.275 OA
ATOM     18  C   UNL     1      62.393 -27.960  24.833  1.00  0.00     0.114 C 
ATOM     19  H   UNL     1      59.990 -27.625  25.703  1.00  0.00     0.164 HD
ENDBRANCH  14  15
ENDBRANCH  12  14
ENDBRANCH   1  12
BRANCH   8  20
ATOM     20  N   UNL     1      57.415 -31.439  22.539  1.00  0.00    -0.324 N 
ATOM     21  H   UNL     1      58.150 -31.085  21.945  1.00  0.00     0.170 HD
BRANCH  20  22
ATOM     22  C   UNL     1      57.033 -32.695  22.079  1.00  0.00     0.229 A 
ATOM     23  N   UNL     1      57.487 -33.725  22.806  1.00  0.00    -0.221 NA
ATOM     24  N   UNL     1      56.277 -32.859  20.987  1.00  0.00    -0.195 NA
ATOM     25  C   UNL     1      57.144 -34.959  22.398  1.00  0.00     0.132 A 
ATOM     26  C   UNL     1      55.959 -34.105  20.585  1.00  0.00     0.144 A 
ATOM     27  C   UNL     1      56.381 -35.215  21.283  1.00  0.00     0.116 A 
BRANCH  26  28
ATOM     28  N   UNL     1      55.122 -34.244  19.455  1.00  0.00    -0.367 N 
ATOM     29  H   UNL     1      55.345 -35.101  18.949  1.00  0.00     0.162 HD
BRANCH  28  30
ATOM     30  C   UNL     1      54.851 -33.144  18.563  1.00  0.00     0.080 C 
ATOM     31  C   UNL     1      53.960 -33.563  17.373  1.00  0.00     0.025 C 
ATOM     32  C   UNL     1      55.984 -32.882  17.544  1.00  0.00     0.025 C 
ATOM     33  C   UNL     1      55.242 -33.797  16.551  1.00  0.00     0.004 C 
ENDBRANCH  28  30
ENDBRANCH  26  28
BRANCH  27  34
ATOM     34  C   UNL     1      56.017 -36.602  20.912  1.00  0.00     0.421 C 
ATOM     35  F   UNL     1      56.224 -37.499  21.913  1.00  0.00    -0.166 F 
ATOM     36  F   UNL     1      56.729 -37.072  19.847  1.00  0.00    -0.166 F 
ATOM     37  F   UNL     1      54.707 -36.735  20.549  1.00  0.00    -0.166 F 
ENDBRANCH  27  34
ENDBRANCH  20  22
ENDBRANCH   8  20
TORSDOF 8
ENDMDL
MODEL 2
REMARK minimizedAffinity -8.80867481
REMARK CNNscore 0.490819365
REMARK CNNaffinity 7.56041384
REMARK SMILES CC(=O)NCC(=O)N1[C@@H]2CC[C@H]1c1ccc(Nc3ncc(C(F)(F)F)c(NC4CCC4)n3)cc12
REMARK SMILES IDX 8 1 12 2 11 3 10 4 9 5 34 6 33 7 16 8 15 9 14 10 13 11 6 12
REMARK SMILES IDX 7 13 5 14 4 15 2 16 3 17 1 18 17 20 18 22 19 23 32 24 20 25
REMARK SMILES IDX 26 26 21 27 27 28 28 30 29 31 31 32 30 33 22 34 23 35 24 36
REMARK SMILES IDX 25 37
REMARK H PARENT 4 19 17 21 27 29
ROOT
ATOM      1  N   UNL     1      54.963 -34.837  19.773  1.00  0.00    -0.327 N 
ATOM      2  C   UNL     1      54.781 -35.268  21.156  1.00  0.00     0.116 C 
ATOM      3  C   UNL     1      55.890 -36.339  21.228  1.00  0.00     0.032 C 
ATOM      4  C   UNL     1      56.996 -35.751  20.283  1.00  0.00     0.032 C 
ATOM      5  C   UNL     1      56.361 -34.429  19.806  1.00  0.00     0.116 C 
ATOM      6  C   UNL     1      56.315 -33.513  21.014  1.00  0.00    -0.018 A 
ATOM      7  C   UNL     1      57.039 -32.391  21.361  1.00  0.00     0.032 A 
ATOM      8  C   UNL     1      56.761 -31.763  22.590  1.00  0.00     0.041 A 
ATOM      9  C   UNL     1      55.765 -32.319  23.428  1.00  0.00     0.026 A 
ATOM     10  C   UNL     1      55.033 -33.464  23.075  1.00  0.00     0.008 A 
ATOM     11  C   UNL     1      55.320 -34.043  21.864  1.00  0.00    -0.020 A 
ENDROOT
BRANCH   1  12
ATOM     12  C   UNL     1      54.039 -34.240  18.951  1.00  0.00     0.242 C 
ATOM     13  O   UNL     1      54.239 -33.146  18.417  1.00  0.00    -0.273 OA
BRANCH  12  14
ATOM     14  C   UNL     1      52.750 -35.023  18.707  1.00  0.00     0.216 C 
BRANCH  14  15
ATOM     15  N   UNL     1      52.372 -34.935  17.311  1.00  0.00    -0.347 N 
ATOM     16  C   UNL     1      51.105 -35.241  16.893  1.00  0.00     0.217 C 
ATOM     17  O   UNL     1      50.225 -35.636  17.652  1.00  0.00    -0.275 OA
ATOM     18  C   UNL     1      50.872 -35.063  15.417  1.00  0.00     0.114 C 
ATOM     19  H   UNL     1      53.068 -34.564  16.670  1.00  0.00     0.164 HD
ENDBRANCH  14  15
ENDBRANCH  12  14
ENDBRANCH   1  12
BRANCH   8  20
ATOM     20  N   UNL     1      57.516 -30.633  22.935  1.00  0.00    -0.324 N 
ATOM     21  H   UNL     1      58.180 -30.303  22.249  1.00  0.00     0.170 HD
BRANCH  20  22
ATOM     22  C   UNL     1      57.505 -29.750  24.010  1.00  0.00     0.229 A 
ATOM     23  N   UNL     1      56.365 -29.067  24.170  1.00  0.00    -0.221 NA
ATOM     24  N   UNL     1      58.562 -29.590  24.817  1.00  0.00    -0.195 NA
ATOM     25  C   UNL     1      56.309 -28.201  25.196  1.00  0.00     0.132 A 
ATOM     26  C   UNL     1      58.493 -28.704  25.828  1.00  0.00     0.144 A 
ATOM     27  C   UNL     1      57.351 -27.970  26.063  1.00  0.00     0.116 A 
BRANCH  26  28
ATOM     28  N   UNL     1      59.608 -28.591  26.689  1.00  0.00    -0.367 N 
ATOM     29  H   UNL     1      59.305 -28.574  27.663  1.00  0.00     0.162 HD
BRANCH  28  30
ATOM     30  C   UNL     1      60.678 -27.657  26.438  1.00  0.00     0.080 C 
ATOM     31  C   UNL     1      62.002 -28.370  26.085  1.00  0.00     0.025 C 
ATOM     32  C   UNL     1      61.365 -27.146  27.724  1.00  0.00     0.025 C 
ATOM     33  C   UNL     1      62.396 -28.281  27.572  1.00  0.00     0.004 C 
ENDBRANCH  28  30
ENDBRANCH  26  28
BRANCH  27  34
ATOM     34  C   UNL     1      57.207 -27.020  27.191  1.00  0.00     0.421 C 
ATOM     35  F   UNL     1      55.912 -26.780  27.530  1.00  0.00    -0.166 F 
ATOM     36  F   UNL     1      57.749 -25.796  26.929  1.00  0.00    -0.166 F 
ATOM     37  F   UNL     1      57.825 -27.445  28.332  1.00  0.00    -0.166 F 
ENDBRANCH  27  34
ENDBRANCH  20  22
ENDBRANCH   8  20
TORSDOF 8
ENDMDL
MODEL 3
REMARK minimizedAffinity -9.09313488
REMARK CNNscore 0.425283015
REMARK CNNaffinity 7.62505865
REMARK SMILES CC(=O)NCC(=O)N1[C@@H]2CC[C@H]1c1ccc(Nc3ncc(C(F)(F)F)c(NC4CCC4)n3)cc12
REMARK SMILES IDX 8 1 12 2 11 3 10 4 9 5 34 6 33 7 16 8 15 9 14 10 13 11 6 12
REMARK SMILES IDX 7 13 5 14 4 15 2 16 3 17 1 18 17 20 18 22 19 23 32 24 20 25
REMARK SMILES IDX 26 26 21 27 27 28 28 30 29 31 31 32 30 33 22 34 23 35 24 36
REMARK SMILES IDX 25 37
REMARK H PARENT 4 19 17 21 27 29
ROOT
ATOM      1  N   UNL     1      57.599 -28.068  26.086  1.00  0.00    -0.327 N 
ATOM      2  C   UNL     1      56.160 -27.943  25.871  1.00  0.00     0.116 C 
ATOM      3  C   UNL     1      56.166 -26.799  24.835  1.00  0.00     0.032 C 
ATOM      4  C   UNL     1      57.487 -27.069  24.033  1.00  0.00     0.032 C 
ATOM      5  C   UNL     1      58.048 -28.328  24.725  1.00  0.00     0.116 C 
ATOM      6  C   UNL     1      57.108 -29.466  24.375  1.00  0.00    -0.018 A 
ATOM      7  C   UNL     1      57.233 -30.553  23.535  1.00  0.00     0.032 A 
ATOM      8  C   UNL     1      56.145 -31.439  23.412  1.00  0.00     0.041 A 
ATOM      9  C   UNL     1      54.961 -31.167  24.141  1.00  0.00     0.026 A 
ATOM     10  C   UNL     1      54.835 -30.057  24.990  1.00  0.00     0.008 A 
ATOM     11  C   UNL     1      55.919 -29.222  25.097  1.00  0.00    -0.020 A 
ENDROOT
BRANCH   1  12
ATOM     12  C   UNL     1      58.242 -28.583  27.185  1.00  0.00     0.242 C 
ATOM     13  O   UNL     1      57.655 -28.816  28.245  1.00  0.00    -0.273 OA
BRANCH  12  14
ATOM     14  C   UNL     1      59.731 -28.882  27.016  1.00  0.00     0.216 C 
BRANCH  14  15
ATOM     15  N   UNL     1      60.520 -27.887  27.713  1.00  0.00    -0.347 N 
ATOM     16  C   UNL     1      61.017 -26.787  27.065  1.00  0.00     0.217 C 
ATOM     17  O   UNL     1      60.859 -26.588  25.865  1.00  0.00    -0.275 OA
ATOM     18  C   UNL     1      61.785 -25.838  27.943  1.00  0.00     0.114 C 
ATOM     19  H   UNL     1      60.624 -28.005  28.717  1.00  0.00     0.164 HD
ENDBRANCH  14  15
ENDBRANCH  12  14
ENDBRANCH   1  12
BRANCH   8  20
ATOM     20  N   UNL     1      56.282 -32.531  22.544  1.00  0.00    -0.324 N 
ATOM     21  H   UNL     1      56.670 -33.376  22.936  1.00  0.00     0.170 HD
BRANCH  20  22
ATOM     22  C   UNL     1      55.906 -32.777  21.228  1.00  0.00     0.229 A 
ATOM     23  N   UNL     1      56.880 -32.616  20.323  1.00  0.00    -0.221 NA
ATOM     24  N   UNL     1      54.661 -33.139  20.893  1.00  0.00    -0.195 NA
ATOM     25  C   UNL     1      56.563 -32.842  19.036  1.00  0.00     0.132 A 
ATOM     26  C   UNL     1      54.360 -33.343  19.597  1.00  0.00     0.144 A 
ATOM     27  C   UNL     1      55.308 -33.205  18.607  1.00  0.00     0.116 A 
BRANCH  26  28
ATOM     28  N   UNL     1      53.050 -33.769  19.280  1.00  0.00    -0.367 N 
ATOM     29  H   UNL     1      52.361 -33.132  19.680  1.00  0.00     0.162 HD
BRANCH  28  30
ATOM     30  C   UNL     1      52.644 -35.148  19.396  1.00  0.00     0.080 C 
ATOM     31  C   UNL     1      52.388 -35.799  18.018  1.00  0.00     0.025 C 
ATOM     32  C   UNL     1      51.138 -35.325  19.692  1.00  0.00     0.025 C 
ATOM     33  C   UNL     1      50.898 -35.441  18.174  1.00  0.00     0.004 C 
ENDBRANCH  28  30
ENDBRANCH  26  28
BRANCH  27  34
ATOM     34  C   UNL     1      55.039 -33.467  17.174  1.00  0.00     0.421 C 
ATOM     35  F   UNL     1      56.090 -33.162  16.365  1.00  0.00    -0.166 F 
ATOM     36  F   UNL     1      53.986 -32.749  16.690  1.00  0.00    -0.166 F 
ATOM     37  F   UNL     1      54.728 -34.772  16.916  1.00  0.00    -0.166 F 
ENDBRANCH  27  34
ENDBRANCH  20  22
ENDBRANCH   8  20
TORSDOF 8
ENDMDL
MODEL 4
REMARK minimizedAffinity -9.91236877
REMARK CNNscore 0.417473406
REMARK CNNaffinity 7.66249084
REMARK SMILES CC(=O)NCC(=O)N1[C@@H]2CC[C@H]1c1ccc(Nc3ncc(C(F)(F)F)c(NC4CCC4)n3)cc12
REMARK SMILES IDX 8 1 12 2 11 3 10 4 9 5 34 6 33 7 16 8 15 9 14 10 13 11 6 12
REMARK SMILES IDX 7 13 5 14 4 15 2 16 3 17 1 18 17 20 18 22 19 23 32 24 20 25
REMARK SMILES IDX 26 26 21 27 27 28 28 30 29 31 31 32 30 33 22 34 23 35 24 36
REMARK SMILES IDX 25 37
REMARK H PARENT 4 19 17 21 27 29
ROOT
ATOM      1  N   UNL     1      54.083 -34.163  18.974  1.00  0.00    -0.327 N 
ATOM      2  C   UNL     1      55.452 -34.666  18.901  1.00  0.00     0.116 C 
ATOM      3  C   UNL     1      56.023 -33.673  17.867  1.00  0.00     0.032 C 
ATOM      4  C   UNL     1      55.238 -32.354  18.189  1.00  0.00     0.032 C 
ATOM      5  C   UNL     1      54.330 -32.781  19.360  1.00  0.00     0.116 C 
ATOM      6  C   UNL     1      55.244 -33.023  20.547  1.00  0.00    -0.018 A 
ATOM      7  C   UNL     1      55.467 -32.316  21.710  1.00  0.00     0.032 A 
ATOM      8  C   UNL     1      56.417 -32.807  22.626  1.00  0.00     0.041 A 
ATOM      9  C   UNL     1      57.118 -33.996  22.306  1.00  0.00     0.026 A 
ATOM     10  C   UNL     1      56.893 -34.710  21.120  1.00  0.00     0.008 A 
ATOM     11  C   UNL     1      55.950 -34.210  20.256  1.00  0.00    -0.020 A 
ENDROOT
BRANCH   1  12
ATOM     12  C   UNL     1      52.957 -34.848  19.361  1.00  0.00     0.242 C 
ATOM     13  O   UNL     1      52.674 -35.037  20.547  1.00  0.00    -0.273 OA
BRANCH  12  14
ATOM     14  C   UNL     1      52.049 -35.342  18.236  1.00  0.00     0.216 C 
BRANCH  14  15
ATOM     15  N   UNL     1      52.589 -34.944  16.951  1.00  0.00    -0.347 N 
ATOM     16  C   UNL     1      51.777 -34.498  15.943  1.00  0.00     0.217 C 
ATOM     17  O   UNL     1      50.556 -34.437  16.043  1.00  0.00    -0.275 OA
ATOM     18  C   UNL     1      52.502 -34.094  14.688  1.00  0.00     0.114 C 
ATOM     19  H   UNL     1      53.601 -34.940  16.861  1.00  0.00     0.164 HD
ENDBRANCH  14  15
ENDBRANCH  12  14
ENDBRANCH   1  12
BRANCH   8  20
ATOM     20  N   UNL     1      56.643 -32.070  23.797  1.00  0.00    -0.324 N 
ATOM     21  H   UNL     1      57.261 -32.482  24.480  1.00  0.00     0.170 HD
BRANCH  20  22
ATOM     22  C   UNL     1      56.278 -30.799  24.229  1.00  0.00     0.229 A 
ATOM     23  N   UNL     1      55.116 -30.740  24.891  1.00  0.00    -0.221 NA
ATOM     24  N   UNL     1      57.030 -29.718  23.991  1.00  0.00    -0.195 NA
ATOM     25  C   UNL     1      54.721 -29.531  25.328  1.00  0.00     0.132 A 
ATOM     26  C   UNL     1      56.609 -28.513  24.420  1.00  0.00     0.144 A 
ATOM     27  C   UNL     1      55.428 -28.370  25.116  1.00  0.00     0.116 A 
BRANCH  26  28
ATOM     28  N   UNL     1      57.447 -27.398  24.194  1.00  0.00    -0.367 N 
ATOM     29  H   UNL     1      57.781 -27.393  23.231  1.00  0.00     0.162 HD
BRANCH  28  30
ATOM     30  C   UNL     1      58.477 -27.012  25.127  1.00  0.00     0.080 C 
ATOM     31  C   UNL     1      58.425 -25.505  25.464  1.00  0.00     0.025 C 
ATOM     32  C   UNL     1      59.847 -26.754  24.461  1.00  0.00     0.025 C 
ATOM     33  C   UNL     1      59.466 -25.265  24.354  1.00  0.00     0.004 C 
ENDBRANCH  28  30
ENDBRANCH  26  28
BRANCH  27  34
ATOM     34  C   UNL     1      54.946 -27.076  25.653  1.00  0.00     0.421 C 
ATOM     35  F   UNL     1      55.150 -26.033  24.805  1.00  0.00    -0.166 F 
ATOM     36  F   UNL     1      55.558 -26.723  26.820  1.00  0.00    -0.166 F 
ATOM     37  F   UNL     1      53.611 -27.078  25.938  1.00  0.00    -0.166 F 
ENDBRANCH  27  34
ENDBRANCH  20  22
ENDBRANCH   8  20
TORSDOF 8
ENDMDL
MODEL 5
REMARK minimizedAffinity -9.26271248
REMARK CNNscore 0.353378713
REMARK CNNaffinity 7.31214523
REMARK SMILES CC(=O)NCC(=O)N1[C@@H]2CC[C@H]1c1ccc(Nc3ncc(C(F)(F)F)c(NC4CCC4)n3)cc12
REMARK SMILES IDX 8 1 12 2 11 3 10 4 9 5 34 6 33 7 16 8 15 9 14 10 13 11 6 12
REMARK SMILES IDX 7 13 5 14 4 15 2 16 3 17 1 18 17 20 18 22 19 23 32 24 20 25
REMARK SMILES IDX 26 26 21 27 27 28 28 30 29 31 31 32 30 33 22 34 23 35 24 36
REMARK SMILES IDX 25 37
REMARK H PARENT 4 19 17 21 27 29
ROOT
ATOM      1  N   UNL     1      56.265 -27.915  26.059  1.00  0.00    -0.327 N 
ATOM      2  C   UNL     1      57.492 -28.696  26.194  1.00  0.00     0.116 C 
ATOM      3  C   UNL     1      57.229 -29.328  27.577  1.00  0.00     0.032 C 
ATOM      4  C   UNL     1      55.671 -29.518  27.576  1.00  0.00     0.032 C 
ATOM      5  C   UNL     1      55.266 -28.968  26.194  1.00  0.00     0.116 C 
ATOM      6  C   UNL     1      55.807 -29.944  25.166  1.00  0.00    -0.018 A 
ATOM      7  C   UNL     1      55.193 -30.875  24.354  1.00  0.00     0.032 A 
ATOM      8  C   UNL     1      55.996 -31.659  23.502  1.00  0.00     0.041 A 
ATOM      9  C   UNL     1      57.400 -31.473  23.529  1.00  0.00     0.026 A 
ATOM     10  C   UNL     1      58.021 -30.528  24.361  1.00  0.00     0.008 A 
ATOM     11  C   UNL     1      57.208 -29.772  25.168  1.00  0.00    -0.020 A 
ENDROOT
BRANCH   1  12
ATOM     12  C   UNL     1      56.060 -26.800  25.284  1.00  0.00     0.242 C 
ATOM     13  O   UNL     1      55.215 -26.764  24.387  1.00  0.00    -0.273 OA
BRANCH  12  14
ATOM     14  C   UNL     1      56.924 -25.583  25.615  1.00  0.00     0.216 C 
BRANCH  14  15
ATOM     15  N   UNL     1      58.296 -25.993  25.835  1.00  0.00    -0.347 N 
ATOM     16  C   UNL     1      59.282 -25.707  24.930  1.00  0.00     0.217 C 
ATOM     17  O   UNL     1      59.071 -25.123  23.872  1.00  0.00    -0.275 OA
ATOM     18  C   UNL     1      60.655 -26.176  25.329  1.00  0.00     0.114 C 
ATOM     19  H   UNL     1      58.504 -26.436  26.726  1.00  0.00     0.164 HD
ENDBRANCH  14  15
ENDBRANCH  12  14
ENDBRANCH   1  12
BRANCH   8  20
ATOM     20  N   UNL     1      55.360 -32.611  22.693  1.00  0.00    -0.324 N 
ATOM     21  H   UNL     1      54.751 -33.268  23.158  1.00  0.00     0.170 HD
BRANCH  20  22
ATOM     22  C   UNL     1      55.285 -32.823  21.320  1.00  0.00     0.229 A 
ATOM     23  N   UNL     1      56.422 -32.597  20.651  1.00  0.00    -0.221 NA
ATOM     24  N   UNL     1      54.156 -33.216  20.716  1.00  0.00    -0.195 NA
ATOM     25  C   UNL     1      56.397 -32.789  19.320  1.00  0.00     0.132 A 
ATOM     26  C   UNL     1      54.147 -33.385  19.381  1.00  0.00     0.144 A 
ATOM     27  C   UNL     1      55.279 -33.180  18.622  1.00  0.00     0.116 A 
BRANCH  26  28
ATOM     28  N   UNL     1      52.954 -33.844  18.778  1.00  0.00    -0.367 N 
ATOM     29  H   UNL     1      52.172 -33.242  19.033  1.00  0.00     0.162 HD
BRANCH  28  30
ATOM     30  C   UNL     1      52.586 -35.239  18.775  1.00  0.00     0.080 C 
ATOM     31  C   UNL     1      52.325 -35.770  17.348  1.00  0.00     0.025 C 
ATOM     32  C   UNL     1      51.089 -35.482  19.074  1.00  0.00     0.025 C 
ATOM     33  C   UNL     1      50.829 -35.468  17.555  1.00  0.00     0.004 C 
ENDBRANCH  28  30
ENDBRANCH  26  28
BRANCH  27  34
ATOM     34  C   UNL     1      55.334 -33.400  17.158  1.00  0.00     0.421 C 
ATOM     35  F   UNL     1      54.398 -32.690  16.472  1.00  0.00    -0.166 F 
ATOM     36  F   UNL     1      55.132 -34.703  16.808  1.00  0.00    -0.166 F 
ATOM     37  F   UNL     1      56.539 -33.068  16.610  1.00  0.00    -0.166 F 
ENDBRANCH  27  34
ENDBRANCH  20  22
ENDBRANCH   8  20
TORSDOF 8
ENDMDL
MODEL 6
REMARK minimizedAffinity -9.43283176
REMARK CNNscore 0.272857249
REMARK CNNaffinity 7.31475687
REMARK SMILES CC(=O)NCC(=O)N1[C@@H]2CC[C@H]1c1ccc(Nc3ncc(C(F)(F)F)c(NC4CCC4)n3)cc12
REMARK SMILES IDX 8 1 12 2 11 3 10 4 9 5 34 6 33 7 16 8 15 9 14 10 13 11 6 12
REMARK SMILES IDX 7 13 5 14 4 15 2 16 3 17 1 18 17 20 18 22 19 23 32 24 20 25
REMARK SMILES IDX 26 26 21 27 27 28 28 30 29 31 31 32 30 33 22 34 23 35 24 36
REMARK SMILES IDX 25 37
REMARK H PARENT 4 19 17 21 27 29
ROOT
ATOM      1  N   UNL     1      54.414 -34.170  19.177  1.00  0.00    -0.327 N 
ATOM      2  C   UNL     1      55.827 -34.506  19.328  1.00  0.00     0.116 C 
ATOM      3  C   UNL     1      56.434 -33.440  18.392  1.00  0.00     0.032 C 
ATOM      4  C   UNL     1      55.456 -32.227  18.574  1.00  0.00     0.032 C 
ATOM      5  C   UNL     1      54.430 -32.772  19.588  1.00  0.00     0.116 C 
ATOM      6  C   UNL     1      55.165 -32.918  20.907  1.00  0.00    -0.018 A 
ATOM      7  C   UNL     1      55.113 -32.204  22.086  1.00  0.00     0.032 A 
ATOM      8  C   UNL     1      55.956 -32.591  23.146  1.00  0.00     0.041 A 
ATOM      9  C   UNL     1      56.835 -33.684  22.951  1.00  0.00     0.026 A 
ATOM     10  C   UNL     1      56.889 -34.406  21.749  1.00  0.00     0.008 A 
ATOM     11  C   UNL     1      56.044 -34.011  20.742  1.00  0.00    -0.020 A 
ENDROOT
BRANCH   1  12
ATOM     12  C   UNL     1      53.330 -34.987  19.384  1.00  0.00     0.242 C 
ATOM     13  O   UNL     1      53.012 -35.392  20.505  1.00  0.00    -0.273 OA
BRANCH  12  14
ATOM     14  C   UNL     1      52.512 -35.348  18.144  1.00  0.00     0.216 C 
BRANCH  14  15
ATOM     15  N   UNL     1      53.238 -34.979  16.946  1.00  0.00    -0.347 N 
ATOM     16  C   UNL     1      52.586 -34.630  15.794  1.00  0.00     0.217 C 
ATOM     17  O   UNL     1      51.363 -34.636  15.688  1.00  0.00    -0.275 OA
ATOM     18  C   UNL     1      53.489 -34.244  14.655  1.00  0.00     0.114 C 
ATOM     19  H   UNL     1      54.249 -34.920  17.023  1.00  0.00     0.164 HD
ENDBRANCH  14  15
ENDBRANCH  12  14
ENDBRANCH   1  12
BRANCH   8  20
ATOM     20  N   UNL     1      55.903 -31.846  24.332  1.00  0.00    -0.324 N 
ATOM     21  H   UNL     1      55.693 -32.355  25.179  1.00  0.00     0.170 HD
BRANCH  20  22
ATOM     22  C   UNL     1      56.176 -30.523  24.661  1.00  0.00     0.229 A 
ATOM     23  N   UNL     1      55.122 -29.699  24.612  1.00  0.00    -0.221 NA
ATOM     24  N   UNL     1      57.405 -30.105  24.992  1.00  0.00    -0.195 NA
ATOM     25  C   UNL     1      55.339 -28.408  24.920  1.00  0.00     0.132 A 
ATOM     26  C   UNL     1      57.604 -28.805  25.280  1.00  0.00     0.144 A 
ATOM     27  C   UNL     1      56.569 -27.897  25.259  1.00  0.00     0.116 A 
BRANCH  26  28
ATOM     28  N   UNL     1      58.902 -28.404  25.669  1.00  0.00    -0.367 N 
ATOM     29  H   UNL     1      59.606 -28.855  25.085  1.00  0.00     0.162 HD
BRANCH  28  30
ATOM     30  C   UNL     1      59.303 -28.348  27.054  1.00  0.00     0.080 C 
ATOM     31  C   UNL     1      60.382 -27.272  27.306  1.00  0.00     0.025 C 
ATOM     32  C   UNL     1      60.360 -29.410  27.433  1.00  0.00     0.025 C 
ATOM     33  C   UNL     1      61.453 -28.366  27.133  1.00  0.00     0.004 C 
ENDBRANCH  28  30
ENDBRANCH  26  28
BRANCH  27  34
ATOM     34  C   UNL     1      56.727 -26.467  25.616  1.00  0.00     0.421 C 
ATOM     35  F   UNL     1      56.994 -26.269  26.935  1.00  0.00    -0.166 F 
ATOM     36  F   UNL     1      55.612 -25.727  25.354  1.00  0.00    -0.166 F 
ATOM     37  F   UNL     1      57.733 -25.851  24.930  1.00  0.00    -0.166 F 
ENDBRANCH  27  34
ENDBRANCH  20  22
ENDBRANCH   8  20
TORSDOF 8
ENDMDL
MODEL 7
REMARK minimizedAffinity -9.7288599
REMARK CNNscore 0.272744387
REMARK CNNaffinity 7.45707464
REMARK SMILES CC(=O)NCC(=O)N1[C@@H]2CC[C@H]1c1ccc(Nc3ncc(C(F)(F)F)c(NC4CCC4)n3)cc12
REMARK SMILES IDX 8 1 12 2 11 3 10 4 9 5 34 6 33 7 16 8 15 9 14 10 13 11 6 12
REMARK SMILES IDX 7 13 5 14 4 15 2 16 3 17 1 18 17 20 18 22 19 23 32 24 20 25
REMARK SMILES IDX 26 26 21 27 27 28 28 30 29 31 31 32 30 33 22 34 23 35 24 36
REMARK SMILES IDX 25 37
REMARK H PARENT 4 19 17 21 27 29
ROOT
ATOM      1  N   UNL     1      58.849 -27.712  27.033  1.00  0.00    -0.327 N 
ATOM      2  C   UNL     1      57.523 -27.911  27.611  1.00  0.00     0.116 C 
ATOM      3  C   UNL     1      56.920 -26.519  27.326  1.00  0.00     0.032 C 
ATOM      4  C   UNL     1      57.598 -26.124  25.967  1.00  0.00     0.032 C 
ATOM      5  C   UNL     1      58.492 -27.345  25.670  1.00  0.00     0.116 C 
ATOM      6  C   UNL     1      57.555 -28.495  25.349  1.00  0.00    -0.018 A 
ATOM      7  C   UNL     1      57.242 -29.140  24.171  1.00  0.00     0.032 A 
ATOM      8  C   UNL     1      56.297 -30.184  24.205  1.00  0.00     0.041 A 
ATOM      9  C   UNL     1      55.694 -30.515  25.443  1.00  0.00     0.026 A 
ATOM     10  C   UNL     1      56.011 -29.853  26.639  1.00  0.00     0.008 A 
ATOM     11  C   UNL     1      56.946 -28.850  26.572  1.00  0.00    -0.020 A 
ENDROOT
BRANCH   1  12
ATOM     12  C   UNL     1      60.006 -28.388  27.336  1.00  0.00     0.242 C 
ATOM     13  O   UNL     1      60.006 -29.555  27.733  1.00  0.00    -0.273 OA
BRANCH  12  14
ATOM     14  C   UNL     1      61.310 -27.618  27.125  1.00  0.00     0.216 C 
BRANCH  14  15
ATOM     15  N   UNL     1      61.688 -26.936  28.346  1.00  0.00    -0.347 N 
ATOM     16  C   UNL     1      62.250 -25.688  28.323  1.00  0.00     0.217 C 
ATOM     17  O   UNL     1      62.499 -25.084  27.284  1.00  0.00    -0.275 OA
ATOM     18  C   UNL     1      62.551 -25.112  29.679  1.00  0.00     0.114 C 
ATOM     19  H   UNL     1      61.448 -27.396  29.220  1.00  0.00     0.164 HD
ENDBRANCH  14  15
ENDBRANCH  12  14
ENDBRANCH   1  12
BRANCH   8  20
ATOM     20  N   UNL     1      55.978 -30.820  22.998  1.00  0.00    -0.324 N 
ATOM     21  H   UNL     1      55.659 -30.230  22.243  1.00  0.00     0.170 HD
BRANCH  20  22
ATOM     22  C   UNL     1      56.089 -32.125  22.529  1.00  0.00     0.229 A 
ATOM     23  N   UNL     1      56.714 -32.972  23.358  1.00  0.00    -0.221 NA
ATOM     24  N   UNL     1      55.615 -32.501  21.335  1.00  0.00    -0.195 NA
ATOM     25  C   UNL     1      56.846 -34.245  22.946  1.00  0.00     0.132 A 
ATOM     26  C   UNL     1      55.774 -33.777  20.933  1.00  0.00     0.144 A 
ATOM     27  C   UNL     1      56.398 -34.709  21.732  1.00  0.00     0.116 A 
BRANCH  26  28
ATOM     28  N   UNL     1      55.223 -34.154  19.688  1.00  0.00    -0.367 N 
ATOM     29  H   UNL     1      55.843 -34.804  19.205  1.00  0.00     0.162 HD
BRANCH  28  30
ATOM     30  C   UNL     1      54.640 -33.191  18.786  1.00  0.00     0.080 C 
ATOM     31  C   UNL     1      54.027 -33.859  17.536  1.00  0.00     0.025 C 
ATOM     32  C   UNL     1      55.670 -32.521  17.849  1.00  0.00     0.025 C 
ATOM     33  C   UNL     1      55.358 -33.607  16.801  1.00  0.00     0.004 C 
ENDBRANCH  28  30
ENDBRANCH  26  28
BRANCH  27  34
ATOM     34  C   UNL     1      56.553 -36.135  21.358  1.00  0.00     0.421 C 
ATOM     35  F   UNL     1      57.193 -36.872  22.304  1.00  0.00    -0.166 F 
ATOM     36  F   UNL     1      57.271 -36.309  20.211  1.00  0.00    -0.166 F 
ATOM     37  F   UNL     1      55.362 -36.762  21.130  1.00  0.00    -0.166 F 
ENDBRANCH  27  34
ENDBRANCH  20  22
ENDBRANCH   8  20
TORSDOF 8
ENDMDL
MODEL 8
REMARK minimizedAffinity -9.92969036
REMARK CNNscore 0.256639034
REMARK CNNaffinity 7.10893106
REMARK SMILES CC(=O)NCC(=O)N1[C@@H]2CC[C@H]1c1ccc(Nc3ncc(C(F)(F)F)c(NC4CCC4)n3)cc12
REMARK SMILES IDX 8 1 12 2 11 3 10 4 9 5 34 6 33 7 16 8 15 9 14 10 13 11 6 12
REMARK SMILES IDX 7 13 5 14 4 15 2 16 3 17 1 18 17 20 18 22 19 23 32 24 20 25
REMARK SMILES IDX 26 26 21 27 27 28 28 30 29 31 31 32 30 33 22 34 23 35 24 36
REMARK SMILES IDX 25 37
REMARK H PARENT 4 19 17 21 27 29
ROOT
ATOM      1  N   UNL     1      57.990 -26.457  26.549  1.00  0.00    -0.327 N 
ATOM      2  C   UNL     1      58.783 -27.619  26.940  1.00  0.00     0.116 C 
ATOM      3  C   UNL     1      58.085 -27.953  28.275  1.00  0.00     0.032 C 
ATOM      4  C   UNL     1      56.596 -27.547  27.995  1.00  0.00     0.032 C 
ATOM      5  C   UNL     1      56.655 -27.038  26.541  1.00  0.00     0.116 C 
ATOM      6  C   UNL     1      56.926 -28.251  25.671  1.00  0.00    -0.018 A 
ATOM      7  C   UNL     1      56.134 -28.967  24.798  1.00  0.00     0.032 A 
ATOM      8  C   UNL     1      56.692 -30.082  24.142  1.00  0.00     0.041 A 
ATOM      9  C   UNL     1      58.035 -30.432  24.419  1.00  0.00     0.026 A 
ATOM     10  C   UNL     1      58.837 -29.704  25.312  1.00  0.00     0.008 A 
ATOM     11  C   UNL     1      58.267 -28.616  25.924  1.00  0.00    -0.020 A 
ENDROOT
BRANCH   1  12
ATOM     12  C   UNL     1      58.356 -25.437  25.705  1.00  0.00     0.242 C 
ATOM     13  O   UNL     1      58.343 -24.254  26.053  1.00  0.00    -0.273 OA
BRANCH  12  14
ATOM     14  C   UNL     1      58.814 -25.851  24.307  1.00  0.00     0.216 C 
BRANCH  14  15
ATOM     15  N   UNL     1      60.088 -25.233  23.998  1.00  0.00    -0.347 N 
ATOM     16  C   UNL     1      61.269 -25.896  24.192  1.00  0.00     0.217 C 
ATOM     17  O   UNL     1      61.334 -27.027  24.665  1.00  0.00    -0.275 OA
ATOM     18  C   UNL     1      62.495 -25.123  23.789  1.00  0.00     0.114 C 
ATOM     19  H   UNL     1      60.058 -24.316  23.561  1.00  0.00     0.164 HD
ENDBRANCH  14  15
ENDBRANCH  12  14
ENDBRANCH   1  12
BRANCH   8  20
ATOM     20  N   UNL     1      55.870 -30.808  23.269  1.00  0.00    -0.324 N 
ATOM     21  H   UNL     1      55.061 -30.329  22.902  1.00  0.00     0.170 HD
BRANCH  20  22
ATOM     22  C   UNL     1      55.952 -32.065  22.679  1.00  0.00     0.229 A 
ATOM     23  N   UNL     1      56.700 -32.954  23.345  1.00  0.00    -0.221 NA
ATOM     24  N   UNL     1      55.335 -32.358  21.528  1.00  0.00    -0.195 NA
ATOM     25  C   UNL     1      56.810 -34.183  22.811  1.00  0.00     0.132 A 
ATOM     26  C   UNL     1      55.472 -33.590  21.000  1.00  0.00     0.144 A 
ATOM     27  C   UNL     1      56.219 -34.562  21.629  1.00  0.00     0.116 A 
BRANCH  26  28
ATOM     28  N   UNL     1      54.773 -33.883  19.808  1.00  0.00    -0.367 N 
ATOM     29  H   UNL     1      55.081 -34.775  19.423  1.00  0.00     0.162 HD
BRANCH  28  30
ATOM     30  C   UNL     1      54.565 -32.893  18.780  1.00  0.00     0.080 C 
ATOM     31  C   UNL     1      54.204 -33.531  17.420  1.00  0.00     0.025 C 
ATOM     32  C   UNL     1      55.876 -32.395  18.129  1.00  0.00     0.025 C 
ATOM     33  C   UNL     1      55.697 -33.476  17.046  1.00  0.00     0.004 C 
ENDBRANCH  28  30
ENDBRANCH  26  28
BRANCH  27  34
ATOM     34  C   UNL     1      56.359 -35.945  21.116  1.00  0.00     0.421 C 
ATOM     35  F   UNL     1      57.184 -36.038  20.039  1.00  0.00    -0.166 F 
ATOM     36  F   UNL     1      55.173 -36.487  20.716  1.00  0.00    -0.166 F 
ATOM     37  F   UNL     1      56.851 -36.815  22.047  1.00  0.00    -0.166 F 
ENDBRANCH  27  34
ENDBRANCH  20  22
ENDBRANCH   8  20
TORSDOF 8
ENDMDL
MODEL 9
REMARK minimizedAffinity -7.85382414
REMARK CNNscore 0.253439903
REMARK CNNaffinity 7.30959702
REMARK SMILES CC(=O)NCC(=O)N1[C@@H]2CC[C@H]1c1ccc(Nc3ncc(C(F)(F)F)c(NC4CCC4)n3)cc12
REMARK SMILES IDX 8 1 12 2 11 3 10 4 9 5 34 6 33 7 16 8 15 9 14 10 13 11 6 12
REMARK SMILES IDX 7 13 5 14 4 15 2 16 3 17 1 18 17 20 18 22 19 23 32 24 20 25
REMARK SMILES IDX 26 26 21 27 27 28 28 30 29 31 31 32 30 33 22 34 23 35 24 36
REMARK SMILES IDX 25 37
REMARK H PARENT 4 19 17 21 27 29
ROOT
ATOM      1  N   UNL     1      55.582 -33.949  21.037  1.00  0.00    -0.327 N 
ATOM      2  C   UNL     1      56.455 -34.058  19.871  1.00  0.00     0.116 C 
ATOM      3  C   UNL     1      56.841 -35.547  19.993  1.00  0.00     0.032 C 
ATOM      4  C   UNL     1      55.542 -36.191  20.593  1.00  0.00     0.032 C 
ATOM      5  C   UNL     1      54.599 -34.978  20.729  1.00  0.00     0.116 C 
ATOM      6  C   UNL     1      54.240 -34.552  19.318  1.00  0.00    -0.018 A 
ATOM      7  C   UNL     1      53.081 -34.662  18.578  1.00  0.00     0.032 A 
ATOM      8  C   UNL     1      53.075 -34.172  17.258  1.00  0.00     0.041 A 
ATOM      9  C   UNL     1      54.264 -33.604  16.738  1.00  0.00     0.026 A 
ATOM     10  C   UNL     1      55.443 -33.498  17.492  1.00  0.00     0.008 A 
ATOM     11  C   UNL     1      55.410 -33.973  18.779  1.00  0.00    -0.020 A 
ENDROOT
BRANCH   1  12
ATOM     12  C   UNL     1      55.267 -32.815  21.746  1.00  0.00     0.242 C 
ATOM     13  O   UNL     1      54.330 -32.078  21.430  1.00  0.00    -0.273 OA
BRANCH  12  14
ATOM     14  C   UNL     1      56.127 -32.529  22.976  1.00  0.00     0.216 C 
BRANCH  14  15
ATOM     15  N   UNL     1      55.397 -31.696  23.910  1.00  0.00    -0.347 N 
ATOM     16  C   UNL     1      55.775 -30.404  24.161  1.00  0.00     0.217 C 
ATOM     17  O   UNL     1      56.759 -29.881  23.647  1.00  0.00    -0.275 OA
ATOM     18  C   UNL     1      54.889 -29.670  25.130  1.00  0.00     0.114 C 
ATOM     19  H   UNL     1      54.551 -32.090  24.311  1.00  0.00     0.164 HD
ENDBRANCH  14  15
ENDBRANCH  12  14
ENDBRANCH   1  12
BRANCH   8  20
ATOM     20  N   UNL     1      51.895 -34.305  16.514  1.00  0.00    -0.324 N 
ATOM     21  H   UNL     1      51.027 -34.263  17.028  1.00  0.00     0.170 HD
BRANCH  20  22
ATOM     22  C   UNL     1      51.608 -34.390  15.155  1.00  0.00     0.229 A 
ATOM     23  N   UNL     1      50.903 -35.470  14.793  1.00  0.00    -0.221 NA
ATOM     24  N   UNL     1      52.016 -33.466  14.277  1.00  0.00    -0.195 NA
ATOM     25  C   UNL     1      50.603 -35.595  13.489  1.00  0.00     0.132 A 
ATOM     26  C   UNL     1      51.721 -33.619  12.972  1.00  0.00     0.144 A 
ATOM     27  C   UNL     1      50.992 -34.698  12.522  1.00  0.00     0.116 A 
BRANCH  26  28
ATOM     28  N   UNL     1      52.126 -32.604  12.076  1.00  0.00    -0.367 N 
ATOM     29  H   UNL     1      51.328 -32.029  11.804  1.00  0.00     0.162 HD
BRANCH  28  30
ATOM     30  C   UNL     1      53.005 -32.870  10.965  1.00  0.00     0.080 C 
ATOM     31  C   UNL     1      54.280 -31.998  11.008  1.00  0.00     0.025 C 
ATOM     32  C   UNL     1      52.610 -32.121   9.672  1.00  0.00     0.025 C 
ATOM     33  C   UNL     1      53.569 -30.988  10.087  1.00  0.00     0.004 C 
ENDBRANCH  28  30
ENDBRANCH  26  28
BRANCH  27  34
ATOM     34  C   UNL     1      50.599 -34.886  11.106  1.00  0.00     0.421 C 
ATOM     35  F   UNL     1      51.647 -35.182  10.291  1.00  0.00    -0.166 F 
ATOM     36  F   UNL     1      50.016 -33.778  10.564  1.00  0.00    -0.166 F 
ATOM     37  F   UNL     1      49.688 -35.888  10.931  1.00  0.00    -0.166 F 
ENDBRANCH  27  34
ENDBRANCH  20  22
ENDBRANCH   8  20
TORSDOF 8
ENDMDL
