MODEL 1
REMARK VINA RESULT:      -8.4      0.000      0.000
REMARK SMILES CC(=O)NCC(=O)N1[C@@H]2CC[C@H]1c1ccc(Nc3ncc(C(F)(F)F)c(NC4CCC4)n3)cc12
REMARK SMILES IDX 8 1 12 2 11 3 10 4 9 5 34 6 33 7 16 8 15 9 14 10 13 11 6 12
REMARK SMILES IDX 7 13 5 14 4 15 2 16 3 17 1 18 17 20 18 22 19 23 32 24 20 25
REMARK SMILES IDX 26 26 21 27 27 28 28 30 29 31 31 32 30 33 22 34 23 35 24 36
REMARK SMILES IDX 25 37
REMARK H PARENT 4 19 17 21 27 29
ROOT
ATOM      1  N   UNL     1      21.849 135.847  13.049  1.00  0.00    -0.327 N 
ATOM      2  C   UNL     1      23.157 136.451  13.287  1.00  0.00     0.116 C 
ATOM      3  C   UNL     1      23.870 135.245  13.935  1.00  0.00     0.032 C 
ATOM      4  C   UNL     1      23.221 134.024  13.194  1.00  0.00     0.032 C 
ATOM      5  C   UNL     1      22.231 134.706  12.228  1.00  0.00     0.116 C 
ATOM      6  C   UNL     1      23.070 135.427  11.190  1.00  0.00    -0.018 A 
ATOM      7  C   UNL     1      23.325 135.171   9.858  1.00  0.00     0.032 A 
ATOM      8  C   UNL     1      24.183 136.042   9.158  1.00  0.00     0.041 A 
ATOM      9  C   UNL     1      24.762 137.131   9.854  1.00  0.00     0.026 A 
ATOM     10  C   UNL     1      24.503 137.385  11.209  1.00  0.00     0.008 A 
ATOM     11  C   UNL     1      23.652 136.525  11.858  1.00  0.00    -0.020 A 
ENDROOT
BRANCH   1  12
ATOM     12  C   UNL     1      20.642 136.487  12.908  1.00  0.00     0.242 C 
ATOM     13  O   UNL     1      20.473 137.409  12.105  1.00  0.00    -0.273 OA
BRANCH  12  14
ATOM     14  C   UNL     1      19.501 135.973  13.784  1.00  0.00     0.216 C 
BRANCH  14  15
ATOM     15  N   UNL     1      18.521 135.283  12.969  1.00  0.00    -0.347 N 
ATOM     16  C   UNL     1      17.359 134.799  13.506  1.00  0.00     0.217 C 
ATOM     17  O   UNL     1      17.084 134.885  14.698  1.00  0.00    -0.275 OA
ATOM     18  C   UNL     1      16.439 134.139  12.515  1.00  0.00     0.114 C 
ATOM     19  H   UNL     1      18.704 135.242  11.970  1.00  0.00     0.164 HD
ENDBRANCH  14  15
ENDBRANCH  12  14
ENDBRANCH   1  12
BRANCH   8  20
ATOM     20  N   UNL     1      24.445 135.761   7.810  1.00  0.00    -0.324 N 
ATOM     21  H   UNL     1      23.756 136.071   7.139  1.00  0.00     0.170 HD
BRANCH  20  22
ATOM     22  C   UNL     1      25.524 135.215   7.124  1.00  0.00     0.229 A 
ATOM     23  N   UNL     1      25.705 135.688   5.885  1.00  0.00    -0.221 NA
ATOM     24  N   UNL     1      26.316 134.279   7.663  1.00  0.00    -0.195 NA
ATOM     25  C   UNL     1      26.737 135.188   5.183  1.00  0.00     0.132 A 
ATOM     26  C   UNL     1      27.333 133.777   6.936  1.00  0.00     0.144 A 
ATOM     27  C   UNL     1      27.589 134.218   5.657  1.00  0.00     0.116 A 
BRANCH  26  28
ATOM     28  N   UNL     1      28.178 132.824   7.548  1.00  0.00    -0.367 N 
ATOM     29  H   UNL     1      29.079 132.788   7.072  1.00  0.00     0.162 HD
BRANCH  28  30
ATOM     30  C   UNL     1      27.709 131.511   7.919  1.00  0.00     0.080 C 
ATOM     31  C   UNL     1      28.861 130.486   8.014  1.00  0.00     0.025 C 
ATOM     32  C   UNL     1      27.160 130.693   6.729  1.00  0.00     0.025 C 
ATOM     33  C   UNL     1      28.564 130.082   6.557  1.00  0.00     0.004 C 
ENDBRANCH  28  30
ENDBRANCH  26  28
BRANCH  27  34
ATOM     34  C   UNL     1      28.724 133.735   4.836  1.00  0.00     0.421 C 
ATOM     35  F   UNL     1      29.890 133.645   5.532  1.00  0.00    -0.166 F 
ATOM     36  F   UNL     1      28.995 134.545   3.773  1.00  0.00    -0.166 F 
ATOM     37  F   UNL     1      28.508 132.500   4.296  1.00  0.00    -0.166 F 
ENDBRANCH  27  34
ENDBRANCH  20  22
ENDBRANCH   8  20
TORSDOF 8
ENDMDL
MODEL 2
REMARK VINA RESULT:      -7.9     24.893     27.148
REMARK SMILES CC(=O)NCC(=O)N1[C@@H]2CC[C@H]1c1ccc(Nc3ncc(C(F)(F)F)c(NC4CCC4)n3)cc12
REMARK SMILES IDX 8 1 12 2 11 3 10 4 9 5 34 6 33 7 16 8 15 9 14 10 13 11 6 12
REMARK SMILES IDX 7 13 5 14 4 15 2 16 3 17 1 18 17 20 18 22 19 23 32 24 20 25
REMARK SMILES IDX 26 26 21 27 27 28 28 30 29 31 31 32 30 33 22 34 23 35 24 36
REMARK SMILES IDX 25 37
REMARK H PARENT 4 19 17 21 27 29
ROOT
ATOM      1  N   UNL     1      10.204 122.443 -12.555  1.00  0.00    -0.327 N 
ATOM      2  C   UNL     1      11.662 122.524 -12.543  1.00  0.00     0.116 C 
ATOM      3  C   UNL     1      11.870 123.383 -13.808  1.00  0.00     0.032 C 
ATOM      4  C   UNL     1      10.609 124.316 -13.800  1.00  0.00     0.032 C 
ATOM      5  C   UNL     1       9.860 123.858 -12.532  1.00  0.00     0.116 C 
ATOM      6  C   UNL     1      10.708 124.292 -11.351  1.00  0.00    -0.018 A 
ATOM      7  C   UNL     1      10.551 125.285 -10.407  1.00  0.00     0.032 A 
ATOM      8  C   UNL     1      11.550 125.447  -9.427  1.00  0.00     0.041 A 
ATOM      9  C   UNL     1      12.681 124.597  -9.463  1.00  0.00     0.026 A 
ATOM     10  C   UNL     1      12.840 123.590 -10.427  1.00  0.00     0.008 A 
ATOM     11  C   UNL     1      11.842 123.451 -11.359  1.00  0.00    -0.020 A 
ENDROOT
BRANCH   1  12
ATOM     12  C   UNL     1       9.412 121.482 -11.976  1.00  0.00     0.242 C 
ATOM     13  O   UNL     1       8.181 121.507 -12.049  1.00  0.00    -0.273 OA
BRANCH  12  14
ATOM     14  C   UNL     1      10.144 120.351 -11.254  1.00  0.00     0.216 C 
BRANCH  14  15
ATOM     15  N   UNL     1      10.256 120.654  -9.842  1.00  0.00    -0.347 N 
ATOM     16  C   UNL     1      11.228 120.083  -9.063  1.00  0.00     0.217 C 
ATOM     17  O   UNL     1      12.036 119.265  -9.492  1.00  0.00    -0.275 OA
ATOM     18  C   UNL     1      11.223 120.531  -7.627  1.00  0.00     0.114 C 
ATOM     19  H   UNL     1       9.630 121.364  -9.474  1.00  0.00     0.164 HD
ENDBRANCH  14  15
ENDBRANCH  12  14
ENDBRANCH   1  12
BRANCH   8  20
ATOM     20  N   UNL     1      11.383 126.470  -8.484  1.00  0.00    -0.324 N 
ATOM     21  H   UNL     1      11.810 126.329  -7.580  1.00  0.00     0.170 HD
BRANCH  20  22
ATOM     22  C   UNL     1      10.824 127.744  -8.521  1.00  0.00     0.229 A 
ATOM     23  N   UNL     1      10.990 128.466  -7.406  1.00  0.00    -0.221 NA
ATOM     24  N   UNL     1      10.163 128.205  -9.590  1.00  0.00    -0.195 NA
ATOM     25  C   UNL     1      10.465 129.704  -7.395  1.00  0.00     0.132 A 
ATOM     26  C   UNL     1       9.629 129.441  -9.552  1.00  0.00     0.144 A 
ATOM     27  C   UNL     1       9.763 130.249  -8.445  1.00  0.00     0.116 A 
BRANCH  26  28
ATOM     28  N   UNL     1       8.976 129.917 -10.712  1.00  0.00    -0.367 N 
ATOM     29  H   UNL     1       8.828 130.924 -10.650  1.00  0.00     0.162 HD
BRANCH  28  30
ATOM     30  C   UNL     1       7.840 129.237 -11.285  1.00  0.00     0.080 C 
ATOM     31  C   UNL     1       6.851 130.216 -11.955  1.00  0.00     0.025 C 
ATOM     32  C   UNL     1       6.732 128.915 -10.257  1.00  0.00     0.025 C 
ATOM     33  C   UNL     1       6.055 130.246 -10.636  1.00  0.00     0.004 C 
ENDBRANCH  28  30
ENDBRANCH  26  28
BRANCH  27  34
ATOM     34  C   UNL     1       9.238 131.633  -8.373  1.00  0.00     0.421 C 
ATOM     35  F   UNL     1       9.743 132.450  -9.336  1.00  0.00    -0.166 F 
ATOM     36  F   UNL     1       9.519 132.247  -7.188  1.00  0.00    -0.166 F 
ATOM     37  F   UNL     1       7.880 131.698  -8.494  1.00  0.00    -0.166 F 
ENDBRANCH  27  34
ENDBRANCH  20  22
ENDBRANCH   8  20
TORSDOF 8
ENDMDL
MODEL 3
REMARK VINA RESULT:      -7.8     25.195     26.911
REMARK SMILES CC(=O)NCC(=O)N1[C@@H]2CC[C@H]1c1ccc(Nc3ncc(C(F)(F)F)c(NC4CCC4)n3)cc12
REMARK SMILES IDX 8 1 12 2 11 3 10 4 9 5 34 6 33 7 16 8 15 9 14 10 13 11 6 12
REMARK SMILES IDX 7 13 5 14 4 15 2 16 3 17 1 18 17 20 18 22 19 23 32 24 20 25
REMARK SMILES IDX 26 26 21 27 27 28 28 30 29 31 31 32 30 33 22 34 23 35 24 36
REMARK SMILES IDX 25 37
REMARK H PARENT 4 19 17 21 27 29
ROOT
ATOM      1  N   UNL     1      10.433 129.357  -9.791  1.00  0.00    -0.327 N 
ATOM      2  C   UNL     1      11.823 128.909  -9.785  1.00  0.00     0.116 C 
ATOM      3  C   UNL     1      12.221 129.366  -8.365  1.00  0.00     0.032 C 
ATOM      4  C   UNL     1      10.889 129.177  -7.558  1.00  0.00     0.032 C 
ATOM      5  C   UNL     1       9.920 128.640  -8.631  1.00  0.00     0.116 C 
ATOM      6  C   UNL     1      10.397 127.243  -8.981  1.00  0.00    -0.018 A 
ATOM      7  C   UNL     1       9.895 125.990  -8.701  1.00  0.00     0.032 A 
ATOM      8  C   UNL     1      10.599 124.862  -9.164  1.00  0.00     0.041 A 
ATOM      9  C   UNL     1      11.803 125.060  -9.883  1.00  0.00     0.026 A 
ATOM     10  C   UNL     1      12.314 126.337 -10.162  1.00  0.00     0.008 A 
ATOM     11  C   UNL     1      11.596 127.415  -9.708  1.00  0.00    -0.020 A 
ENDROOT
BRANCH   1  12
ATOM     12  C   UNL     1       9.651 129.652 -10.881  1.00  0.00     0.242 C 
ATOM     13  O   UNL     1      10.069 130.315 -11.833  1.00  0.00    -0.273 OA
BRANCH  12  14
ATOM     14  C   UNL     1       8.232 129.085 -10.865  1.00  0.00     0.216 C 
BRANCH  14  15
ATOM     15  N   UNL     1       7.309 130.041 -11.443  1.00  0.00    -0.347 N 
ATOM     16  C   UNL     1       6.509 130.827 -10.657  1.00  0.00     0.217 C 
ATOM     17  O   UNL     1       6.494 130.754  -9.433  1.00  0.00    -0.275 OA
ATOM     18  C   UNL     1       5.635 131.787 -11.417  1.00  0.00     0.114 C 
ATOM     19  H   UNL     1       7.338 130.153 -12.452  1.00  0.00     0.164 HD
ENDBRANCH  14  15
ENDBRANCH  12  14
ENDBRANCH   1  12
BRANCH   8  20
ATOM     20  N   UNL     1      10.084 123.595  -8.859  1.00  0.00    -0.324 N 
ATOM     21  H   UNL     1       9.208 123.569  -8.357  1.00  0.00     0.170 HD
BRANCH  20  22
ATOM     22  C   UNL     1      10.457 122.293  -9.177  1.00  0.00     0.229 A 
ATOM     23  N   UNL     1      11.383 121.757  -8.371  1.00  0.00    -0.221 NA
ATOM     24  N   UNL     1       9.933 121.631 -10.216  1.00  0.00    -0.195 NA
ATOM     25  C   UNL     1      11.775 120.500  -8.641  1.00  0.00     0.132 A 
ATOM     26  C   UNL     1      10.353 120.379 -10.480  1.00  0.00     0.144 A 
ATOM     27  C   UNL     1      11.296 119.756  -9.694  1.00  0.00     0.116 A 
BRANCH  26  28
ATOM     28  N   UNL     1       9.749 119.690 -11.556  1.00  0.00    -0.367 N 
ATOM     29  H   UNL     1      10.124 118.745 -11.630  1.00  0.00     0.162 HD
BRANCH  28  30
ATOM     30  C   UNL     1       9.564 120.302 -12.849  1.00  0.00     0.080 C 
ATOM     31  C   UNL     1       9.227 119.264 -13.943  1.00  0.00     0.025 C 
ATOM     32  C   UNL     1      10.888 120.572 -13.599  1.00  0.00     0.025 C 
ATOM     33  C   UNL     1      10.728 119.202 -14.286  1.00  0.00     0.004 C 
ENDBRANCH  28  30
ENDBRANCH  26  28
BRANCH  27  34
ATOM     34  C   UNL     1      11.754 118.364  -9.912  1.00  0.00     0.421 C 
ATOM     35  F   UNL     1      12.142 118.120 -11.192  1.00  0.00    -0.166 F 
ATOM     36  F   UNL     1      10.789 117.438  -9.641  1.00  0.00    -0.166 F 
ATOM     37  F   UNL     1      12.812 118.016  -9.122  1.00  0.00    -0.166 F 
ENDBRANCH  27  34
ENDBRANCH  20  22
ENDBRANCH   8  20
TORSDOF 8
ENDMDL
MODEL 4
REMARK VINA RESULT:      -7.7     24.606     26.952
REMARK SMILES CC(=O)NCC(=O)N1[C@@H]2CC[C@H]1c1ccc(Nc3ncc(C(F)(F)F)c(NC4CCC4)n3)cc12
REMARK SMILES IDX 8 1 12 2 11 3 10 4 9 5 34 6 33 7 16 8 15 9 14 10 13 11 6 12
REMARK SMILES IDX 7 13 5 14 4 15 2 16 3 17 1 18 17 20 18 22 19 23 32 24 20 25
REMARK SMILES IDX 26 26 21 27 27 28 28 30 29 31 31 32 30 33 22 34 23 35 24 36
REMARK SMILES IDX 25 37
REMARK H PARENT 4 19 17 21 27 29
ROOT
ATOM      1  N   UNL     1      12.156 121.594 -12.604  1.00  0.00    -0.327 N 
ATOM      2  C   UNL     1      13.257 122.471 -12.991  1.00  0.00     0.116 C 
ATOM      3  C   UNL     1      12.594 123.181 -14.190  1.00  0.00     0.032 C 
ATOM      4  C   UNL     1      11.088 123.254 -13.756  1.00  0.00     0.032 C 
ATOM      5  C   UNL     1      11.105 122.575 -12.371  1.00  0.00     0.116 C 
ATOM      6  C   UNL     1      11.853 123.513 -11.442  1.00  0.00    -0.018 A 
ATOM      7  C   UNL     1      11.437 124.333 -10.414  1.00  0.00     0.032 A 
ATOM      8  C   UNL     1      12.400 125.111  -9.742  1.00  0.00     0.041 A 
ATOM      9  C   UNL     1      13.750 125.033 -10.160  1.00  0.00     0.026 A 
ATOM     10  C   UNL     1      14.169 124.201 -11.209  1.00  0.00     0.008 A 
ATOM     11  C   UNL     1      13.208 123.446 -11.834  1.00  0.00    -0.020 A 
ENDROOT
BRANCH   1  12
ATOM     12  C   UNL     1      12.230 120.413 -11.907  1.00  0.00     0.242 C 
ATOM     13  O   UNL     1      13.238 119.703 -11.913  1.00  0.00    -0.273 OA
BRANCH  12  14
ATOM     14  C   UNL     1      10.994 120.035 -11.089  1.00  0.00     0.216 C 
BRANCH  14  15
ATOM     15  N   UNL     1      11.337 119.942  -9.685  1.00  0.00    -0.347 N 
ATOM     16  C   UNL     1      10.755 120.757  -8.752  1.00  0.00     0.217 C 
ATOM     17  O   UNL     1       9.942 121.630  -9.038  1.00  0.00    -0.275 OA
ATOM     18  C   UNL     1      11.200 120.506  -7.337  1.00  0.00     0.114 C 
ATOM     19  H   UNL     1      11.972 119.195  -9.417  1.00  0.00     0.164 HD
ENDBRANCH  14  15
ENDBRANCH  12  14
ENDBRANCH   1  12
BRANCH   8  20
ATOM     20  N   UNL     1      11.959 125.951  -8.709  1.00  0.00    -0.324 N 
ATOM     21  H   UNL     1      12.182 125.667  -7.766  1.00  0.00     0.170 HD
BRANCH  20  22
ATOM     22  C   UNL     1      11.339 127.196  -8.668  1.00  0.00     0.229 A 
ATOM     23  N   UNL     1      11.556 127.898  -7.549  1.00  0.00    -0.221 NA
ATOM     24  N   UNL     1      10.576 127.650  -9.671  1.00  0.00    -0.195 NA
ATOM     25  C   UNL     1      10.975 129.108  -7.464  1.00  0.00     0.132 A 
ATOM     26  C   UNL     1       9.989 128.856  -9.558  1.00  0.00     0.144 A 
ATOM     27  C   UNL     1      10.170 129.643  -8.442  1.00  0.00     0.116 A 
BRANCH  26  28
ATOM     28  N   UNL     1       9.227 129.327 -10.651  1.00  0.00    -0.367 N 
ATOM     29  H   UNL     1       8.918 130.285 -10.484  1.00  0.00     0.162 HD
BRANCH  28  30
ATOM     30  C   UNL     1       8.198 128.527 -11.269  1.00  0.00     0.080 C 
ATOM     31  C   UNL     1       7.215 129.380 -12.100  1.00  0.00     0.025 C 
ATOM     32  C   UNL     1       7.020 128.200 -10.323  1.00  0.00     0.025 C 
ATOM     33  C   UNL     1       6.296 129.448 -10.865  1.00  0.00     0.004 C 
ENDBRANCH  28  30
ENDBRANCH  26  28
BRANCH  27  34
ATOM     34  C   UNL     1       9.587 130.997  -8.292  1.00  0.00     0.421 C 
ATOM     35  F   UNL     1       9.564 131.433  -7.004  1.00  0.00    -0.166 F 
ATOM     36  F   UNL     1       8.295 131.071  -8.725  1.00  0.00    -0.166 F 
ATOM     37  F   UNL     1      10.256 131.951  -9.003  1.00  0.00    -0.166 F 
ENDBRANCH  27  34
ENDBRANCH  20  22
ENDBRANCH   8  20
TORSDOF 8
ENDMDL
MODEL 5
REMARK VINA RESULT:      -7.5      2.562      4.218
REMARK SMILES CC(=O)NCC(=O)N1[C@@H]2CC[C@H]1c1ccc(Nc3ncc(C(F)(F)F)c(NC4CCC4)n3)cc12
REMARK SMILES IDX 8 1 12 2 11 3 10 4 9 5 34 6 33 7 16 8 15 9 14 10 13 11 6 12
REMARK SMILES IDX 7 13 5 14 4 15 2 16 3 17 1 18 17 20 18 22 19 23 32 24 20 25
REMARK SMILES IDX 26 26 21 27 27 28 28 30 29 31 31 32 30 33 22 34 23 35 24 36
REMARK SMILES IDX 25 37
REMARK H PARENT 4 19 17 21 27 29
ROOT
ATOM      1  N   UNL     1      22.385 135.653  13.851  1.00  0.00    -0.327 N 
ATOM      2  C   UNL     1      21.349 135.490  12.834  1.00  0.00     0.116 C 
ATOM      3  C   UNL     1      20.723 136.899  12.894  1.00  0.00     0.032 C 
ATOM      4  C   UNL     1      21.958 137.810  13.225  1.00  0.00     0.032 C 
ATOM      5  C   UNL     1      23.113 136.792  13.307  1.00  0.00     0.116 C 
ATOM      6  C   UNL     1      23.337 136.281  11.896  1.00  0.00    -0.018 A 
ATOM      7  C   UNL     1      24.339 136.500  10.974  1.00  0.00     0.032 A 
ATOM      8  C   UNL     1      24.244 135.878   9.714  1.00  0.00     0.041 A 
ATOM      9  C   UNL     1      23.115 135.069   9.439  1.00  0.00     0.026 A 
ATOM     10  C   UNL     1      22.095 134.851  10.377  1.00  0.00     0.008 A 
ATOM     11  C   UNL     1      22.226 135.462  11.600  1.00  0.00    -0.020 A 
ENDROOT
BRANCH   1  12
ATOM     12  C   UNL     1      22.997 134.671  14.590  1.00  0.00     0.242 C 
ATOM     13  O   UNL     1      23.119 133.514  14.180  1.00  0.00    -0.273 OA
BRANCH  12  14
ATOM     14  C   UNL     1      23.552 135.098  15.949  1.00  0.00     0.216 C 
BRANCH  14  15
ATOM     15  N   UNL     1      23.986 133.935  16.696  1.00  0.00    -0.347 N 
ATOM     16  C   UNL     1      23.853 133.869  18.057  1.00  0.00     0.217 C 
ATOM     17  O   UNL     1      23.394 134.786  18.731  1.00  0.00    -0.275 OA
ATOM     18  C   UNL     1      24.324 132.578  18.670  1.00  0.00     0.114 C 
ATOM     19  H   UNL     1      24.324 133.144  16.155  1.00  0.00     0.164 HD
ENDBRANCH  14  15
ENDBRANCH  12  14
ENDBRANCH   1  12
BRANCH   8  20
ATOM     20  N   UNL     1      25.263 136.123   8.783  1.00  0.00    -0.324 N 
ATOM     21  H   UNL     1      25.550 137.084   8.666  1.00  0.00     0.170 HD
BRANCH  20  22
ATOM     22  C   UNL     1      26.084 135.311   8.007  1.00  0.00     0.229 A 
ATOM     23  N   UNL     1      26.813 134.423   8.695  1.00  0.00    -0.221 NA
ATOM     24  N   UNL     1      26.146 135.419   6.674  1.00  0.00    -0.195 NA
ATOM     25  C   UNL     1      27.623 133.617   7.987  1.00  0.00     0.132 A 
ATOM     26  C   UNL     1      26.978 134.615   5.985  1.00  0.00     0.144 A 
ATOM     27  C   UNL     1      27.754 133.670   6.619  1.00  0.00     0.116 A 
BRANCH  26  28
ATOM     28  N   UNL     1      26.987 134.722   4.576  1.00  0.00    -0.367 N 
ATOM     29  H   UNL     1      27.569 135.506   4.281  1.00  0.00     0.162 HD
BRANCH  28  30
ATOM     30  C   UNL     1      25.781 134.618   3.792  1.00  0.00     0.080 C 
ATOM     31  C   UNL     1      25.406 133.150   3.491  1.00  0.00     0.025 C 
ATOM     32  C   UNL     1      26.012 134.807   2.276  1.00  0.00     0.025 C 
ATOM     33  C   UNL     1      26.157 133.278   2.152  1.00  0.00     0.004 C 
ENDBRANCH  28  30
ENDBRANCH  26  28
BRANCH  27  34
ATOM     34  C   UNL     1      28.646 132.729   5.902  1.00  0.00     0.421 C 
ATOM     35  F   UNL     1      29.546 133.351   5.094  1.00  0.00    -0.166 F 
ATOM     36  F   UNL     1      27.968 131.863   5.096  1.00  0.00    -0.166 F 
ATOM     37  F   UNL     1      29.375 131.936   6.742  1.00  0.00    -0.166 F 
ENDBRANCH  27  34
ENDBRANCH  20  22
ENDBRANCH   8  20
TORSDOF 8
ENDMDL
MODEL 6
REMARK VINA RESULT:      -7.4      2.119      2.978
REMARK SMILES CC(=O)NCC(=O)N1[C@@H]2CC[C@H]1c1ccc(Nc3ncc(C(F)(F)F)c(NC4CCC4)n3)cc12
REMARK SMILES IDX 8 1 12 2 11 3 10 4 9 5 34 6 33 7 16 8 15 9 14 10 13 11 6 12
REMARK SMILES IDX 7 13 5 14 4 15 2 16 3 17 1 18 17 20 18 22 19 23 32 24 20 25
REMARK SMILES IDX 26 26 21 27 27 28 28 30 29 31 31 32 30 33 22 34 23 35 24 36
REMARK SMILES IDX 25 37
REMARK H PARENT 4 19 17 21 27 29
ROOT
ATOM      1  N   UNL     1      22.241 135.769  13.413  1.00  0.00    -0.327 N 
ATOM      2  C   UNL     1      21.251 135.585  12.355  1.00  0.00     0.116 C 
ATOM      3  C   UNL     1      20.627 136.996  12.355  1.00  0.00     0.032 C 
ATOM      4  C   UNL     1      21.849 137.911  12.719  1.00  0.00     0.032 C 
ATOM      5  C   UNL     1      22.996 136.893  12.875  1.00  0.00     0.116 C 
ATOM      6  C   UNL     1      23.280 136.349  11.487  1.00  0.00    -0.018 A 
ATOM      7  C   UNL     1      24.323 136.545  10.606  1.00  0.00     0.032 A 
ATOM      8  C   UNL     1      24.281 135.894   9.357  1.00  0.00     0.041 A 
ATOM      9  C   UNL     1      23.163 135.081   9.051  1.00  0.00     0.026 A 
ATOM     10  C   UNL     1      22.102 134.888   9.949  1.00  0.00     0.008 A 
ATOM     11  C   UNL     1      22.181 135.526  11.162  1.00  0.00    -0.020 A 
ENDROOT
BRANCH   1  12
ATOM     12  C   UNL     1      22.817 134.803  14.201  1.00  0.00     0.242 C 
ATOM     13  O   UNL     1      23.444 133.852  13.728  1.00  0.00    -0.273 OA
BRANCH  12  14
ATOM     14  C   UNL     1      22.665 134.987  15.710  1.00  0.00     0.216 C 
BRANCH  14  15
ATOM     15  N   UNL     1      21.565 135.886  15.993  1.00  0.00    -0.347 N 
ATOM     16  C   UNL     1      21.649 136.829  16.981  1.00  0.00     0.217 C 
ATOM     17  O   UNL     1      22.632 136.956  17.705  1.00  0.00    -0.275 OA
ATOM     18  C   UNL     1      20.431 137.701  17.120  1.00  0.00     0.114 C 
ATOM     19  H   UNL     1      20.760 135.832  15.376  1.00  0.00     0.164 HD
ENDBRANCH  14  15
ENDBRANCH  12  14
ENDBRANCH   1  12
BRANCH   8  20
ATOM     20  N   UNL     1      25.341 136.115   8.466  1.00  0.00    -0.324 N 
ATOM     21  H   UNL     1      25.920 136.923   8.641  1.00  0.00     0.170 HD
BRANCH  20  22
ATOM     22  C   UNL     1      25.875 135.402   7.398  1.00  0.00     0.229 A 
ATOM     23  N   UNL     1      25.477 135.815   6.188  1.00  0.00    -0.221 NA
ATOM     24  N   UNL     1      26.717 134.375   7.571  1.00  0.00    -0.195 NA
ATOM     25  C   UNL     1      25.967 135.155   5.124  1.00  0.00     0.132 A 
ATOM     26  C   UNL     1      27.182 133.716   6.493  1.00  0.00     0.144 A 
ATOM     27  C   UNL     1      26.826 134.085   5.215  1.00  0.00     0.116 A 
BRANCH  26  28
ATOM     28  N   UNL     1      28.104 132.666   6.705  1.00  0.00    -0.367 N 
ATOM     29  H   UNL     1      28.609 132.455   5.845  1.00  0.00     0.162 HD
BRANCH  28  30
ATOM     30  C   UNL     1      27.749 131.471   7.431  1.00  0.00     0.080 C 
ATOM     31  C   UNL     1      28.693 130.291   7.109  1.00  0.00     0.025 C 
ATOM     32  C   UNL     1      26.611 130.662   6.769  1.00  0.00     0.025 C 
ATOM     33  C   UNL     1      27.684 129.832   6.038  1.00  0.00     0.004 C 
ENDBRANCH  28  30
ENDBRANCH  26  28
BRANCH  27  34
ATOM     34  C   UNL     1      27.349 133.424   3.996  1.00  0.00     0.421 C 
ATOM     35  F   UNL     1      26.858 132.169   3.812  1.00  0.00    -0.166 F 
ATOM     36  F   UNL     1      28.707 133.287   4.006  1.00  0.00    -0.166 F 
ATOM     37  F   UNL     1      27.070 134.112   2.850  1.00  0.00    -0.166 F 
ENDBRANCH  27  34
ENDBRANCH  20  22
ENDBRANCH   8  20
TORSDOF 8
ENDMDL
MODEL 7
REMARK VINA RESULT:      -7.3     25.394     27.574
REMARK SMILES CC(=O)NCC(=O)N1[C@@H]2CC[C@H]1c1ccc(Nc3ncc(C(F)(F)F)c(NC4CCC4)n3)cc12
REMARK SMILES IDX 8 1 12 2 11 3 10 4 9 5 34 6 33 7 16 8 15 9 14 10 13 11 6 12
REMARK SMILES IDX 7 13 5 14 4 15 2 16 3 17 1 18 17 20 18 22 19 23 32 24 20 25
REMARK SMILES IDX 26 26 21 27 27 28 28 30 29 31 31 32 30 33 22 34 23 35 24 36
REMARK SMILES IDX 25 37
REMARK H PARENT 4 19 17 21 27 29
ROOT
ATOM      1  N   UNL     1      10.149 121.615 -12.020  1.00  0.00    -0.327 N 
ATOM      2  C   UNL     1      10.441 121.258 -10.634  1.00  0.00     0.116 C 
ATOM      3  C   UNL     1      11.824 120.605 -10.835  1.00  0.00     0.032 C 
ATOM      4  C   UNL     1      12.428 121.439 -12.020  1.00  0.00     0.032 C 
ATOM      5  C   UNL     1      11.303 122.449 -12.326  1.00  0.00     0.116 C 
ATOM      6  C   UNL     1      11.239 123.394 -11.141  1.00  0.00    -0.018 A 
ATOM      7  C   UNL     1      11.614 124.711 -10.979  1.00  0.00     0.032 A 
ATOM      8  C   UNL     1      11.436 125.312  -9.718  1.00  0.00     0.041 A 
ATOM      9  C   UNL     1      10.897 124.535  -8.664  1.00  0.00     0.026 A 
ATOM     10  C   UNL     1      10.521 123.193  -8.831  1.00  0.00     0.008 A 
ATOM     11  C   UNL     1      10.695 122.642 -10.077  1.00  0.00    -0.020 A 
ENDROOT
BRANCH   1  12
ATOM     12  C   UNL     1       8.917 121.821 -12.592  1.00  0.00     0.242 C 
ATOM     13  O   UNL     1       7.919 121.175 -12.263  1.00  0.00    -0.273 OA
BRANCH  12  14
ATOM     14  C   UNL     1       8.841 122.924 -13.647  1.00  0.00     0.216 C 
BRANCH  14  15
ATOM     15  N   UNL     1       8.018 124.015 -13.166  1.00  0.00    -0.347 N 
ATOM     16  C   UNL     1       7.856 125.163 -13.895  1.00  0.00     0.217 C 
ATOM     17  O   UNL     1       8.412 125.357 -14.971  1.00  0.00    -0.275 OA
ATOM     18  C   UNL     1       6.944 126.180 -13.266  1.00  0.00     0.114 C 
ATOM     19  H   UNL     1       7.509 123.858 -12.301  1.00  0.00     0.164 HD
ENDBRANCH  14  15
ENDBRANCH  12  14
ENDBRANCH   1  12
BRANCH   8  20
ATOM     20  N   UNL     1      11.836 126.647  -9.565  1.00  0.00    -0.324 N 
ATOM     21  H   UNL     1      12.814 126.848  -9.714  1.00  0.00     0.170 HD
BRANCH  20  22
ATOM     22  C   UNL     1      11.161 127.842  -9.337  1.00  0.00     0.229 A 
ATOM     23  N   UNL     1      11.393 128.403  -8.144  1.00  0.00    -0.221 NA
ATOM     24  N   UNL     1      10.336 128.383 -10.242  1.00  0.00    -0.195 NA
ATOM     25  C   UNL     1      10.761 129.560  -7.879  1.00  0.00     0.132 A 
ATOM     26  C   UNL     1       9.699 129.533  -9.950  1.00  0.00     0.144 A 
ATOM     27  C   UNL     1       9.891 130.176  -8.747  1.00  0.00     0.116 A 
BRANCH  26  28
ATOM     28  N   UNL     1       8.870 130.102 -10.943  1.00  0.00    -0.367 N 
ATOM     29  H   UNL     1       8.626 131.062 -10.697  1.00  0.00     0.162 HD
BRANCH  28  30
ATOM     30  C   UNL     1       7.751 129.388 -11.509  1.00  0.00     0.080 C 
ATOM     31  C   UNL     1       6.677 130.342 -12.076  1.00  0.00     0.025 C 
ATOM     32  C   UNL     1       6.711 128.939 -10.458  1.00  0.00     0.025 C 
ATOM     33  C   UNL     1       5.940 130.246 -10.727  1.00  0.00     0.004 C 
ENDBRANCH  28  30
ENDBRANCH  26  28
BRANCH  27  34
ATOM     34  C   UNL     1       9.253 131.467  -8.399  1.00  0.00     0.421 C 
ATOM     35  F   UNL     1       9.707 132.509  -9.145  1.00  0.00    -0.166 F 
ATOM     36  F   UNL     1       9.461 131.829  -7.100  1.00  0.00    -0.166 F 
ATOM     37  F   UNL     1       7.896 131.454  -8.551  1.00  0.00    -0.166 F 
ENDBRANCH  27  34
ENDBRANCH  20  22
ENDBRANCH   8  20
TORSDOF 8
ENDMDL
MODEL 8
REMARK VINA RESULT:      -7.1     26.265     28.365
REMARK SMILES CC(=O)NCC(=O)N1[C@@H]2CC[C@H]1c1ccc(Nc3ncc(C(F)(F)F)c(NC4CCC4)n3)cc12
REMARK SMILES IDX 8 1 12 2 11 3 10 4 9 5 34 6 33 7 16 8 15 9 14 10 13 11 6 12
REMARK SMILES IDX 7 13 5 14 4 15 2 16 3 17 1 18 17 20 18 22 19 23 32 24 20 25
REMARK SMILES IDX 26 26 21 27 27 28 28 30 29 31 31 32 30 33 22 34 23 35 24 36
REMARK SMILES IDX 25 37
REMARK H PARENT 4 19 17 21 27 29
ROOT
ATOM      1  N   UNL     1      10.063 119.794 -11.971  1.00  0.00    -0.327 N 
ATOM      2  C   UNL     1      10.541 119.197 -10.727  1.00  0.00     0.116 C 
ATOM      3  C   UNL     1      11.898 118.655 -11.222  1.00  0.00     0.032 C 
ATOM      4  C   UNL     1      12.325 119.721 -12.291  1.00  0.00     0.032 C 
ATOM      5  C   UNL     1      11.151 120.720 -12.255  1.00  0.00     0.116 C 
ATOM      6  C   UNL     1      11.225 121.423 -10.912  1.00  0.00    -0.018 A 
ATOM      7  C   UNL     1      11.593 122.702 -10.550  1.00  0.00     0.032 A 
ATOM      8  C   UNL     1      11.572 123.047  -9.184  1.00  0.00     0.041 A 
ATOM      9  C   UNL     1      11.191 122.064  -8.240  1.00  0.00     0.026 A 
ATOM     10  C   UNL     1      10.822 120.762  -8.612  1.00  0.00     0.008 A 
ATOM     11  C   UNL     1      10.841 120.463  -9.951  1.00  0.00    -0.020 A 
ENDROOT
BRANCH   1  12
ATOM     12  C   UNL     1       8.763 120.050 -12.333  1.00  0.00     0.242 C 
ATOM     13  O   UNL     1       8.260 121.172 -12.243  1.00  0.00    -0.273 OA
BRANCH  12  14
ATOM     14  C   UNL     1       7.974 118.864 -12.889  1.00  0.00     0.216 C 
BRANCH  14  15
ATOM     15  N   UNL     1       7.149 118.286 -11.848  1.00  0.00    -0.347 N 
ATOM     16  C   UNL     1       6.370 117.184 -12.083  1.00  0.00     0.217 C 
ATOM     17  O   UNL     1       6.292 116.640 -13.180  1.00  0.00    -0.275 OA
ATOM     18  C   UNL     1       5.602 116.693 -10.886  1.00  0.00     0.114 C 
ATOM     19  H   UNL     1       7.233 118.689 -10.919  1.00  0.00     0.164 HD
ENDBRANCH  14  15
ENDBRANCH  12  14
ENDBRANCH   1  12
BRANCH   8  20
ATOM     20  N   UNL     1      11.963 124.346  -8.830  1.00  0.00    -0.324 N 
ATOM     21  H   UNL     1      12.915 124.464  -8.517  1.00  0.00     0.170 HD
BRANCH  20  22
ATOM     22  C   UNL     1      11.354 125.595  -8.897  1.00  0.00     0.229 A 
ATOM     23  N   UNL     1      12.027 126.584  -8.295  1.00  0.00    -0.221 NA
ATOM     24  N   UNL     1      10.180 125.789  -9.511  1.00  0.00    -0.195 NA
ATOM     25  C   UNL     1      11.476 127.810  -8.334  1.00  0.00     0.132 A 
ATOM     26  C   UNL     1       9.637 127.021  -9.522  1.00  0.00     0.144 A 
ATOM     27  C   UNL     1      10.271 128.092  -8.932  1.00  0.00     0.116 A 
BRANCH  26  28
ATOM     28  N   UNL     1       8.419 127.202 -10.217  1.00  0.00    -0.367 N 
ATOM     29  H   UNL     1       7.783 126.427 -10.029  1.00  0.00     0.162 HD
BRANCH  28  30
ATOM     30  C   UNL     1       8.380 127.613 -11.599  1.00  0.00     0.080 C 
ATOM     31  C   UNL     1       6.938 127.673 -12.149  1.00  0.00     0.025 C 
ATOM     32  C   UNL     1       8.647 126.460 -12.593  1.00  0.00     0.025 C 
ATOM     33  C   UNL     1       7.125 126.237 -12.675  1.00  0.00     0.004 C 
ENDBRANCH  28  30
ENDBRANCH  26  28
BRANCH  27  34
ATOM     34  C   UNL     1       9.739 129.475  -8.961  1.00  0.00     0.421 C 
ATOM     35  F   UNL     1       8.380 129.528  -8.984  1.00  0.00    -0.166 F 
ATOM     36  F   UNL     1      10.151 130.180 -10.053  1.00  0.00    -0.166 F 
ATOM     37  F   UNL     1      10.130 130.222  -7.887  1.00  0.00    -0.166 F 
ENDBRANCH  27  34
ENDBRANCH  20  22
ENDBRANCH   8  20
TORSDOF 8
ENDMDL
MODEL 9
REMARK VINA RESULT:      -7.1     25.424     27.722
REMARK SMILES CC(=O)NCC(=O)N1[C@@H]2CC[C@H]1c1ccc(Nc3ncc(C(F)(F)F)c(NC4CCC4)n3)cc12
REMARK SMILES IDX 8 1 12 2 11 3 10 4 9 5 34 6 33 7 16 8 15 9 14 10 13 11 6 12
REMARK SMILES IDX 7 13 5 14 4 15 2 16 3 17 1 18 17 20 18 22 19 23 32 24 20 25
REMARK SMILES IDX 26 26 21 27 27 28 28 30 29 31 31 32 30 33 22 34 23 35 24 36
REMARK SMILES IDX 25 37
REMARK H PARENT 4 19 17 21 27 29
ROOT
ATOM      1  N   UNL     1      10.330 119.886 -11.934  1.00  0.00    -0.327 N 
ATOM      2  C   UNL     1      10.485 119.557 -10.520  1.00  0.00     0.116 C 
ATOM      3  C   UNL     1      11.791 118.738 -10.600  1.00  0.00     0.032 C 
ATOM      4  C   UNL     1      12.567 119.444 -11.767  1.00  0.00     0.032 C 
ATOM      5  C   UNL     1      11.594 120.564 -12.187  1.00  0.00     0.116 C 
ATOM      6  C   UNL     1      11.565 121.560 -11.043  1.00  0.00    -0.018 A 
ATOM      7  C   UNL     1      12.084 122.830 -10.901  1.00  0.00     0.032 A 
ATOM      8  C   UNL     1      11.896 123.501  -9.676  1.00  0.00     0.041 A 
ATOM      9  C   UNL     1      11.200 122.838  -8.637  1.00  0.00     0.026 A 
ATOM     10  C   UNL     1      10.678 121.544  -8.784  1.00  0.00     0.008 A 
ATOM     11  C   UNL     1      10.866 120.924  -9.994  1.00  0.00    -0.020 A 
ENDROOT
BRANCH   1  12
ATOM     12  C   UNL     1       9.173 120.210 -12.598  1.00  0.00     0.242 C 
ATOM     13  O   UNL     1       8.063 120.147 -12.063  1.00  0.00    -0.273 OA
BRANCH  12  14
ATOM     14  C   UNL     1       9.336 120.686 -14.041  1.00  0.00     0.216 C 
BRANCH  14  15
ATOM     15  N   UNL     1       8.609 121.924 -14.241  1.00  0.00    -0.347 N 
ATOM     16  C   UNL     1       9.254 123.131 -14.288  1.00  0.00     0.217 C 
ATOM     17  O   UNL     1      10.465 123.250 -14.134  1.00  0.00    -0.275 OA
ATOM     18  C   UNL     1       8.355 124.311 -14.535  1.00  0.00     0.114 C 
ATOM     19  H   UNL     1       7.612 121.846 -14.419  1.00  0.00     0.164 HD
ENDBRANCH  14  15
ENDBRANCH  12  14
ENDBRANCH   1  12
BRANCH   8  20
ATOM     20  N   UNL     1      12.442 124.786  -9.542  1.00  0.00    -0.324 N 
ATOM     21  H   UNL     1      13.415 124.894  -9.789  1.00  0.00     0.170 HD
BRANCH  20  22
ATOM     22  C   UNL     1      11.918 126.034  -9.224  1.00  0.00     0.229 A 
ATOM     23  N   UNL     1      12.266 126.503  -8.019  1.00  0.00    -0.221 NA
ATOM     24  N   UNL     1      11.119 126.710 -10.059  1.00  0.00    -0.195 NA
ATOM     25  C   UNL     1      11.782 127.707  -7.667  1.00  0.00     0.132 A 
ATOM     26  C   UNL     1      10.630 127.907  -9.680  1.00  0.00     0.144 A 
ATOM     27  C   UNL     1      10.948 128.460  -8.460  1.00  0.00     0.116 A 
BRANCH  26  28
ATOM     28  N   UNL     1       9.827 128.616 -10.602  1.00  0.00    -0.367 N 
ATOM     29  H   UNL     1       9.708 129.584 -10.300  1.00  0.00     0.162 HD
BRANCH  28  30
ATOM     30  C   UNL     1       8.607 128.063 -11.138  1.00  0.00     0.080 C 
ATOM     31  C   UNL     1       7.753 129.128 -11.861  1.00  0.00     0.025 C 
ATOM     32  C   UNL     1       7.472 127.947 -10.096  1.00  0.00     0.025 C 
ATOM     33  C   UNL     1       6.975 129.334 -10.547  1.00  0.00     0.004 C 
ENDBRANCH  28  30
ENDBRANCH  26  28
BRANCH  27  34
ATOM     34  C   UNL     1      10.477 129.794  -8.018  1.00  0.00     0.421 C 
ATOM     35  F   UNL     1      10.103 129.826  -6.711  1.00  0.00    -0.166 F 
ATOM     36  F   UNL     1       9.393 130.234  -8.719  1.00  0.00    -0.166 F 
ATOM     37  F   UNL     1      11.418 130.772  -8.168  1.00  0.00    -0.166 F 
ENDBRANCH  27  34
ENDBRANCH  20  22
ENDBRANCH   8  20
TORSDOF 8
ENDMDL
