MODEL 1
REMARK VINA RESULT:      -8.4      0.000      0.000
REMARK SMILES CC(=O)c1cccc(-c2cnc3[nH]ccc3c2)c1
REMARK SMILES IDX 4 1 5 2 6 3 7 4 8 5 18 6 2 7 3 8 1 9 9 10 10 11 17 12 11 13
REMARK SMILES IDX 16 14 12 15 15 16 13 17 14 18
REMARK H PARENT 13 19
ROOT
ATOM      1  C   UNL     1      15.634 133.357  -1.936  1.00  0.00     0.018 A 
ATOM      2  C   UNL     1      16.779 134.056  -1.540  1.00  0.00     0.012 A 
ATOM      3  C   UNL     1      17.914 134.049  -2.351  1.00  0.00     0.001 A 
ATOM      4  C   UNL     1      17.912 133.344  -3.556  1.00  0.00     0.009 A 
ATOM      5  C   UNL     1      16.778 132.631  -3.979  1.00  0.00    -0.016 A 
ATOM      6  C   UNL     1      15.643 132.651  -3.150  1.00  0.00     0.020 A 
ENDROOT
BRANCH   1   7
ATOM      7  C   UNL     1      14.391 133.334  -1.109  1.00  0.00     0.159 C 
ATOM      8  O   UNL     1      14.252 134.135  -0.188  1.00  0.00    -0.295 OA
ATOM      9  C   UNL     1      13.326 132.315  -1.421  1.00  0.00     0.093 C 
ENDBRANCH   1   7
BRANCH   5  10
ATOM     10  C   UNL     1      16.776 131.890  -5.251  1.00  0.00     0.001 A 
ATOM     11  C   UNL     1      16.256 130.593  -5.346  1.00  0.00     0.122 A 
ATOM     12  C   UNL     1      17.299 132.453  -6.428  1.00  0.00     0.022 A 
ATOM     13  N   UNL     1      16.206 129.810  -6.456  1.00  0.00    -0.238 NA
ATOM     14  C   UNL     1      17.272 131.694  -7.609  1.00  0.00     0.019 A 
ATOM     15  C   UNL     1      16.725 130.419  -7.537  1.00  0.00     0.137 A 
ATOM     16  C   UNL     1      17.685 131.888  -8.955  1.00  0.00     0.030 A 
ATOM     17  N   UNL     1      16.796 129.858  -8.782  1.00  0.00    -0.346 N 
ATOM     18  C   UNL     1      17.379 130.740  -9.657  1.00  0.00     0.085 A 
ATOM     19  H   UNL     1      16.461 128.930  -8.995  1.00  0.00     0.167 HD
ENDBRANCH   5  10
TORSDOF 2
ENDMDL
MODEL 2
REMARK VINA RESULT:      -7.9      3.744      6.997
REMARK SMILES CC(=O)c1cccc(-c2cnc3[nH]ccc3c2)c1
REMARK SMILES IDX 4 1 5 2 6 3 7 4 8 5 18 6 2 7 3 8 1 9 9 10 10 11 17 12 11 13
REMARK SMILES IDX 16 14 12 15 15 16 13 17 14 18
REMARK H PARENT 13 19
ROOT
ATOM      1  C   UNL     1      18.583 132.474  -6.934  1.00  0.00     0.018 A 
ATOM      2  C   UNL     1      17.496 132.015  -7.684  1.00  0.00     0.012 A 
ATOM      3  C   UNL     1      16.242 131.888  -7.086  1.00  0.00     0.001 A 
ATOM      4  C   UNL     1      16.068 132.216  -5.741  1.00  0.00     0.009 A 
ATOM      5  C   UNL     1      17.142 132.679  -4.961  1.00  0.00    -0.016 A 
ATOM      6  C   UNL     1      18.398 132.801  -5.581  1.00  0.00     0.020 A 
ENDROOT
BRANCH   1   7
ATOM      7  C   UNL     1      19.946 132.631  -7.523  1.00  0.00     0.159 C 
ATOM      8  O   UNL     1      20.320 131.873  -8.414  1.00  0.00    -0.295 OA
ATOM      9  C   UNL     1      20.844 133.723  -7.003  1.00  0.00     0.093 C 
ENDBRANCH   1   7
BRANCH   5  10
ATOM     10  C   UNL     1      16.958 133.026  -3.543  1.00  0.00     0.001 A 
ATOM     11  C   UNL     1      18.047 133.292  -2.703  1.00  0.00     0.122 A 
ATOM     12  C   UNL     1      15.678 133.106  -2.969  1.00  0.00     0.022 A 
ATOM     13  N   UNL     1      18.004 133.614  -1.383  1.00  0.00    -0.238 NA
ATOM     14  C   UNL     1      15.569 133.439  -1.608  1.00  0.00     0.019 A 
ATOM     15  C   UNL     1      16.747 133.669  -0.910  1.00  0.00     0.137 A 
ATOM     16  C   UNL     1      14.503 133.614  -0.684  1.00  0.00     0.030 A 
ATOM     17  N   UNL     1      16.420 133.974   0.383  1.00  0.00    -0.346 N 
ATOM     18  C   UNL     1      15.056 133.944   0.536  1.00  0.00     0.085 A 
ATOM     19  H   UNL     1      17.101 134.186   1.096  1.00  0.00     0.167 HD
ENDBRANCH   5  10
TORSDOF 2
ENDMDL
MODEL 3
REMARK VINA RESULT:      -7.3      3.257      6.509
REMARK SMILES CC(=O)c1cccc(-c2cnc3[nH]ccc3c2)c1
REMARK SMILES IDX 4 1 5 2 6 3 7 4 8 5 18 6 2 7 3 8 1 9 9 10 10 11 17 12 11 13
REMARK SMILES IDX 16 14 12 15 15 16 13 17 14 18
REMARK H PARENT 13 19
ROOT
ATOM      1  C   UNL     1      16.722 131.671  -7.333  1.00  0.00     0.018 A 
ATOM      2  C   UNL     1      17.985 131.913  -7.880  1.00  0.00     0.012 A 
ATOM      3  C   UNL     1      18.984 132.492  -7.097  1.00  0.00     0.001 A 
ATOM      4  C   UNL     1      18.726 132.833  -5.768  1.00  0.00     0.009 A 
ATOM      5  C   UNL     1      17.466 132.603  -5.191  1.00  0.00    -0.016 A 
ATOM      6  C   UNL     1      16.473 132.017  -5.994  1.00  0.00     0.020 A 
ENDROOT
BRANCH   1   7
ATOM      7  C   UNL     1      15.617 131.050  -8.124  1.00  0.00     0.159 C 
ATOM      8  O   UNL     1      14.449 131.225  -7.786  1.00  0.00    -0.295 OA
ATOM      9  C   UNL     1      15.962 130.210  -9.325  1.00  0.00     0.093 C 
ENDBRANCH   1   7
BRANCH   5  10
ATOM     10  C   UNL     1      17.195 132.960  -3.789  1.00  0.00     0.001 A 
ATOM     11  C   UNL     1      18.228 133.270  -2.895  1.00  0.00     0.122 A 
ATOM     12  C   UNL     1      15.884 133.005  -3.285  1.00  0.00     0.022 A 
ATOM     13  N   UNL     1      18.104 133.605  -1.585  1.00  0.00    -0.238 NA
ATOM     14  C   UNL     1      15.691 133.350  -1.936  1.00  0.00     0.019 A 
ATOM     15  C   UNL     1      16.822 133.625  -1.179  1.00  0.00     0.137 A 
ATOM     16  C   UNL     1      14.572 133.500  -1.073  1.00  0.00     0.030 A 
ATOM     17  N   UNL     1      16.416 133.934   0.090  1.00  0.00    -0.346 N 
ATOM     18  C   UNL     1      15.048 133.862   0.171  1.00  0.00     0.085 A 
ATOM     19  H   UNL     1      17.052 134.176   0.835  1.00  0.00     0.167 HD
ENDBRANCH   5  10
TORSDOF 2
ENDMDL
MODEL 4
REMARK VINA RESULT:      -6.9     12.255     14.451
REMARK SMILES CC(=O)c1cccc(-c2cnc3[nH]ccc3c2)c1
REMARK SMILES IDX 4 1 5 2 6 3 7 4 8 5 18 6 2 7 3 8 1 9 9 10 10 11 17 12 11 13
REMARK SMILES IDX 16 14 12 15 15 16 13 17 14 18
REMARK H PARENT 13 19
ROOT
ATOM      1  C   UNL     1      27.603 132.063   7.190  1.00  0.00     0.018 A 
ATOM      2  C   UNL     1      27.288 130.701   7.148  1.00  0.00     0.012 A 
ATOM      3  C   UNL     1      26.690 130.160   6.010  1.00  0.00     0.001 A 
ATOM      4  C   UNL     1      26.402 130.973   4.913  1.00  0.00     0.009 A 
ATOM      5  C   UNL     1      26.705 132.345   4.926  1.00  0.00    -0.016 A 
ATOM      6  C   UNL     1      27.309 132.873   6.080  1.00  0.00     0.020 A 
ENDROOT
BRANCH   1   7
ATOM      7  C   UNL     1      28.247 132.695   8.380  1.00  0.00     0.159 C 
ATOM      8  O   UNL     1      27.658 133.578   8.998  1.00  0.00    -0.295 OA
ATOM      9  C   UNL     1      29.620 132.236   8.797  1.00  0.00     0.093 C 
ENDBRANCH   1   7
BRANCH   5  10
ATOM     10  C   UNL     1      26.403 133.202   3.768  1.00  0.00     0.001 A 
ATOM     11  C   UNL     1      26.612 132.764   2.454  1.00  0.00     0.122 A 
ATOM     12  C   UNL     1      25.891 134.501   3.932  1.00  0.00     0.022 A 
ATOM     13  N   UNL     1      26.379 133.462   1.312  1.00  0.00    -0.238 NA
ATOM     14  C   UNL     1      25.626 135.270   2.787  1.00  0.00     0.019 A 
ATOM     15  C   UNL     1      25.892 134.692   1.552  1.00  0.00     0.137 A 
ATOM     16  C   UNL     1      25.127 136.576   2.530  1.00  0.00     0.030 A 
ATOM     17  N   UNL     1      25.569 135.600   0.582  1.00  0.00    -0.346 N 
ATOM     18  C   UNL     1      25.101 136.753   1.161  1.00  0.00     0.085 A 
ATOM     19  H   UNL     1      25.669 135.420  -0.406  1.00  0.00     0.167 HD
ENDBRANCH   5  10
TORSDOF 2
ENDMDL
MODEL 5
REMARK VINA RESULT:      -6.9     16.439     18.193
REMARK SMILES CC(=O)c1cccc(-c2cnc3[nH]ccc3c2)c1
REMARK SMILES IDX 4 1 5 2 6 3 7 4 8 5 18 6 2 7 3 8 1 9 9 10 10 11 17 12 11 13
REMARK SMILES IDX 16 14 12 15 15 16 13 17 14 18
REMARK H PARENT 13 19
ROOT
ATOM      1  C   UNL     1      18.253 135.219  13.581  1.00  0.00     0.018 A 
ATOM      2  C   UNL     1      18.378 135.553  14.933  1.00  0.00     0.012 A 
ATOM      3  C   UNL     1      19.562 136.121  15.402  1.00  0.00     0.001 A 
ATOM      4  C   UNL     1      20.625 136.355  14.527  1.00  0.00     0.009 A 
ATOM      5  C   UNL     1      20.529 136.029  13.164  1.00  0.00    -0.016 A 
ATOM      6  C   UNL     1      19.327 135.459  12.709  1.00  0.00     0.020 A 
ENDROOT
BRANCH   1   7
ATOM      7  C   UNL     1      17.007 134.612  13.024  1.00  0.00     0.159 C 
ATOM      8  O   UNL     1      17.045 134.010  11.954  1.00  0.00    -0.295 OA
ATOM      9  C   UNL     1      15.718 134.758  13.789  1.00  0.00     0.093 C 
ENDBRANCH   1   7
BRANCH   5  10
ATOM     10  C   UNL     1      21.648 136.278  12.241  1.00  0.00     0.001 A 
ATOM     11  C   UNL     1      22.506 137.374  12.403  1.00  0.00     0.122 A 
ATOM     12  C   UNL     1      21.904 135.425  11.154  1.00  0.00     0.022 A 
ATOM     13  N   UNL     1      23.561 137.710  11.617  1.00  0.00    -0.238 NA
ATOM     14  C   UNL     1      22.986 135.719  10.307  1.00  0.00     0.019 A 
ATOM     15  C   UNL     1      23.740 136.848  10.601  1.00  0.00     0.137 A 
ATOM     16  C   UNL     1      23.558 135.134   9.144  1.00  0.00     0.030 A 
ATOM     17  N   UNL     1      24.731 136.950   9.664  1.00  0.00    -0.346 N 
ATOM     18  C   UNL     1      24.633 135.914   8.769  1.00  0.00     0.085 A 
ATOM     19  H   UNL     1      25.419 137.688   9.658  1.00  0.00     0.167 HD
ENDBRANCH   5  10
TORSDOF 2
ENDMDL
MODEL 6
REMARK VINA RESULT:      -6.8     16.634     18.070
REMARK SMILES CC(=O)c1cccc(-c2cnc3[nH]ccc3c2)c1
REMARK SMILES IDX 4 1 5 2 6 3 7 4 8 5 18 6 2 7 3 8 1 9 9 10 10 11 17 12 11 13
REMARK SMILES IDX 16 14 12 15 15 16 13 17 14 18
REMARK H PARENT 13 19
ROOT
ATOM      1  C   UNL     1      22.804 134.861  11.956  1.00  0.00     0.018 A 
ATOM      2  C   UNL     1      21.797 134.511  11.053  1.00  0.00     0.012 A 
ATOM      3  C   UNL     1      21.972 134.747   9.689  1.00  0.00     0.001 A 
ATOM      4  C   UNL     1      23.149 135.335   9.223  1.00  0.00     0.009 A 
ATOM      5  C   UNL     1      24.179 135.699  10.108  1.00  0.00    -0.016 A 
ATOM      6  C   UNL     1      23.985 135.452  11.478  1.00  0.00     0.020 A 
ENDROOT
BRANCH   1   7
ATOM      7  C   UNL     1      22.672 134.627  13.425  1.00  0.00     0.159 C 
ATOM      8  O   UNL     1      21.917 135.331  14.092  1.00  0.00    -0.295 OA
ATOM      9  C   UNL     1      23.479 133.528  14.066  1.00  0.00     0.093 C 
ENDBRANCH   1   7
BRANCH   5  10
ATOM     10  C   UNL     1      25.421 136.317   9.616  1.00  0.00     0.001 A 
ATOM     11  C   UNL     1      25.829 137.589  10.040  1.00  0.00     0.122 A 
ATOM     12  C   UNL     1      26.253 135.657   8.696  1.00  0.00     0.022 A 
ATOM     13  N   UNL     1      26.943 138.262   9.653  1.00  0.00    -0.238 NA
ATOM     14  C   UNL     1      27.423 136.301   8.261  1.00  0.00     0.019 A 
ATOM     15  C   UNL     1      27.684 137.565   8.774  1.00  0.00     0.137 A 
ATOM     16  C   UNL     1      28.488 135.989   7.372  1.00  0.00     0.030 A 
ATOM     17  N   UNL     1      28.857 138.008   8.227  1.00  0.00    -0.346 N 
ATOM     18  C   UNL     1      29.359 137.060   7.371  1.00  0.00     0.085 A 
ATOM     19  H   UNL     1      29.269 138.905   8.441  1.00  0.00     0.167 HD
ENDBRANCH   5  10
TORSDOF 2
ENDMDL
MODEL 7
REMARK VINA RESULT:      -6.5     15.876     17.941
REMARK SMILES CC(=O)c1cccc(-c2cnc3[nH]ccc3c2)c1
REMARK SMILES IDX 4 1 5 2 6 3 7 4 8 5 18 6 2 7 3 8 1 9 9 10 10 11 17 12 11 13
REMARK SMILES IDX 16 14 12 15 15 16 13 17 14 18
REMARK H PARENT 13 19
ROOT
ATOM      1  C   UNL     1      27.570 131.705   4.082  1.00  0.00     0.018 A 
ATOM      2  C   UNL     1      26.419 131.120   4.619  1.00  0.00     0.012 A 
ATOM      3  C   UNL     1      26.523 130.242   5.698  1.00  0.00     0.001 A 
ATOM      4  C   UNL     1      27.773 129.942   6.242  1.00  0.00     0.009 A 
ATOM      5  C   UNL     1      28.948 130.513   5.723  1.00  0.00    -0.016 A 
ATOM      6  C   UNL     1      28.823 131.396   4.637  1.00  0.00     0.020 A 
ENDROOT
BRANCH   1   7
ATOM      7  C   UNL     1      27.518 132.654   2.931  1.00  0.00     0.159 C 
ATOM      8  O   UNL     1      26.565 132.626   2.156  1.00  0.00    -0.295 OA
ATOM      9  C   UNL     1      28.649 133.630   2.737  1.00  0.00     0.093 C 
ENDBRANCH   1   7
BRANCH   5  10
ATOM     10  C   UNL     1      30.265 130.198   6.299  1.00  0.00     0.001 A 
ATOM     11  C   UNL     1      30.589 130.530   7.621  1.00  0.00     0.122 A 
ATOM     12  C   UNL     1      31.258 129.549   5.545  1.00  0.00     0.022 A 
ATOM     13  N   UNL     1      31.766 130.299   8.258  1.00  0.00    -0.238 NA
ATOM     14  C   UNL     1      32.496 129.280   6.151  1.00  0.00     0.019 A 
ATOM     15  C   UNL     1      32.662 129.678   7.471  1.00  0.00     0.137 A 
ATOM     16  C   UNL     1      33.715 128.669   5.749  1.00  0.00     0.030 A 
ATOM     17  N   UNL     1      33.924 129.325   7.863  1.00  0.00    -0.346 N 
ATOM     18  C   UNL     1      34.578 128.710   6.825  1.00  0.00     0.085 A 
ATOM     19  H   UNL     1      34.292 129.503   8.786  1.00  0.00     0.167 HD
ENDBRANCH   5  10
TORSDOF 2
ENDMDL
MODEL 8
REMARK VINA RESULT:      -6.5     12.659     14.953
REMARK SMILES CC(=O)c1cccc(-c2cnc3[nH]ccc3c2)c1
REMARK SMILES IDX 4 1 5 2 6 3 7 4 8 5 18 6 2 7 3 8 1 9 9 10 10 11 17 12 11 13
REMARK SMILES IDX 16 14 12 15 15 16 13 17 14 18
REMARK H PARENT 13 19
ROOT
ATOM      1  C   UNL     1      29.120 130.345   5.422  1.00  0.00     0.018 A 
ATOM      2  C   UNL     1      28.321 129.773   6.417  1.00  0.00     0.012 A 
ATOM      3  C   UNL     1      27.002 130.198   6.580  1.00  0.00     0.001 A 
ATOM      4  C   UNL     1      26.478 131.195   5.755  1.00  0.00     0.009 A 
ATOM      5  C   UNL     1      27.258 131.789   4.748  1.00  0.00    -0.016 A 
ATOM      6  C   UNL     1      28.583 131.347   4.597  1.00  0.00     0.020 A 
ENDROOT
BRANCH   1   7
ATOM      7  C   UNL     1      30.536 129.926   5.201  1.00  0.00     0.159 C 
ATOM      8  O   UNL     1      31.455 130.640   5.594  1.00  0.00    -0.295 OA
ATOM      9  C   UNL     1      30.811 128.628   4.487  1.00  0.00     0.093 C 
ENDBRANCH   1   7
BRANCH   5  10
ATOM     10  C   UNL     1      26.704 132.838   3.877  1.00  0.00     0.001 A 
ATOM     11  C   UNL     1      26.958 132.863   2.499  1.00  0.00     0.122 A 
ATOM     12  C   UNL     1      25.893 133.865   4.392  1.00  0.00     0.022 A 
ATOM     13  N   UNL     1      26.512 133.778   1.600  1.00  0.00    -0.238 NA
ATOM     14  C   UNL     1      25.398 134.840   3.509  1.00  0.00     0.019 A 
ATOM     15  C   UNL     1      25.746 134.726   2.170  1.00  0.00     0.137 A 
ATOM     16  C   UNL     1      24.580 135.997   3.624  1.00  0.00     0.030 A 
ATOM     17  N   UNL     1      25.167 135.763   1.492  1.00  0.00    -0.346 N 
ATOM     18  C   UNL     1      24.453 136.546   2.365  1.00  0.00     0.085 A 
ATOM     19  H   UNL     1      25.266 135.905   0.498  1.00  0.00     0.167 HD
ENDBRANCH   5  10
TORSDOF 2
ENDMDL
MODEL 9
REMARK VINA RESULT:      -6.4     10.648     13.203
REMARK SMILES CC(=O)c1cccc(-c2cnc3[nH]ccc3c2)c1
REMARK SMILES IDX 4 1 5 2 6 3 7 4 8 5 18 6 2 7 3 8 1 9 9 10 10 11 17 12 11 13
REMARK SMILES IDX 16 14 12 15 15 16 13 17 14 18
REMARK H PARENT 13 19
ROOT
ATOM      1  C   UNL     1      11.681 119.725 -10.347  1.00  0.00     0.018 A 
ATOM      2  C   UNL     1      11.166 119.066  -9.227  1.00  0.00     0.012 A 
ATOM      3  C   UNL     1      10.755 119.800  -8.115  1.00  0.00     0.001 A 
ATOM      4  C   UNL     1      10.858 121.193  -8.115  1.00  0.00     0.009 A 
ATOM      5  C   UNL     1      11.373 121.883  -9.225  1.00  0.00    -0.016 A 
ATOM      6  C   UNL     1      11.780 121.126 -10.337  1.00  0.00     0.020 A 
ENDROOT
BRANCH   1   7
ATOM      7  C   UNL     1      12.133 118.989 -11.565  1.00  0.00     0.159 C 
ATOM      8  O   UNL     1      12.414 117.796 -11.491  1.00  0.00    -0.295 OA
ATOM      9  C   UNL     1      12.242 119.734 -12.870  1.00  0.00     0.093 C 
ENDBRANCH   1   7
BRANCH   5  10
ATOM     10  C   UNL     1      11.479 123.351  -9.226  1.00  0.00     0.001 A 
ATOM     11  C   UNL     1      12.706 124.000  -9.413  1.00  0.00     0.122 A 
ATOM     12  C   UNL     1      10.350 124.167  -9.037  1.00  0.00     0.022 A 
ATOM     13  N   UNL     1      12.930 125.340  -9.425  1.00  0.00    -0.238 NA
ATOM     14  C   UNL     1      10.518 125.562  -9.044  1.00  0.00     0.019 A 
ATOM     15  C   UNL     1      11.804 126.050  -9.238  1.00  0.00     0.137 A 
ATOM     16  C   UNL     1       9.668 126.691  -8.893  1.00  0.00     0.030 A 
ATOM     17  N   UNL     1      11.745 127.416  -9.209  1.00  0.00    -0.346 N 
ATOM     18  C   UNL     1      10.451 127.822  -9.000  1.00  0.00     0.085 A 
ATOM     19  H   UNL     1      12.552 128.012  -9.329  1.00  0.00     0.167 HD
ENDBRANCH   5  10
TORSDOF 2
ENDMDL
