MODEL 1
REMARK VINA RESULT:      -8.2      0.000      0.000
REMARK SMILES CC(C)(C)c1cc(NC(=O)Nc2cccc3ccccc23)n(-c2cccc(C(=O)N(CCN)CCO)c2)n1
REMARK SMILES IDX 28 1 29 2 27 3 23 4 24 5 37 6 25 7 26 8 22 9 5 10 6 11 38 12
REMARK SMILES IDX 7 13 2 14 1 15 3 16 4 17 8 18 9 19 10 20 11 21 12 24 13 25
REMARK SMILES IDX 21 26 14 27 20 28 16 29 15 30 19 31 17 32 18 33 30 34 31 35
REMARK SMILES IDX 32 36 33 37 34 40 35 41 36 42
REMARK H PARENT 8 22 11 23 33 38 33 39 36 43
ROOT
ATOM      1  C   UNL     1      26.829 137.459   2.568  1.00  0.00     0.254 C 
ATOM      2  O   UNL     1      26.761 138.677   2.414  1.00  0.00    -0.269 OA
ENDROOT
BRANCH   1   3
ATOM      3  C   UNL     1      27.585 136.971   3.740  1.00  0.00     0.042 A 
ATOM      4  C   UNL     1      28.012 135.283   5.428  1.00  0.00     0.068 A 
ATOM      5  C   UNL     1      28.995 136.110   5.991  1.00  0.00     0.028 A 
ATOM      6  C   UNL     1      27.308 135.718   4.294  1.00  0.00     0.042 A 
ATOM      7  C   UNL     1      29.244 137.375   5.448  1.00  0.00     0.003 A 
ATOM      8  C   UNL     1      28.532 137.811   4.332  1.00  0.00     0.014 A 
BRANCH   4   9
ATOM      9  N   UNL     1      27.750 133.979   5.939  1.00  0.00    -0.217 N 
ATOM     10  C   UNL     1      28.237 131.932   6.333  1.00  0.00     0.070 A 
ATOM     11  C   UNL     1      27.196 132.282   7.225  1.00  0.00     0.073 A 
ATOM     12  N   UNL     1      28.506 132.942   5.498  1.00  0.00    -0.170 NA
ATOM     13  C   UNL     1      26.822 133.568   6.894  1.00  0.00     0.138 A 
BRANCH  10  14
ATOM     14  C   UNL     1      28.963 130.603   6.194  1.00  0.00     0.006 C 
ATOM     15  C   UNL     1      29.473 130.445   4.748  1.00  0.00     0.017 C 
ATOM     16  C   UNL     1      28.034 129.415   6.521  1.00  0.00     0.017 C 
ATOM     17  C   UNL     1      30.169 130.525   7.156  1.00  0.00     0.017 C 
ENDBRANCH  10  14
BRANCH  13  18
ATOM     18  N   UNL     1      25.749 134.343   7.324  1.00  0.00    -0.292 N 
ATOM     19  C   UNL     1      25.801 135.178   8.436  1.00  0.00     0.324 C 
ATOM     20  O   UNL     1      26.788 135.339   9.141  1.00  0.00    -0.248 OA
ATOM     21  N   UNL     1      24.576 135.813   8.605  1.00  0.00    -0.307 N 
ATOM     22  H   UNL     1      24.833 134.099   6.976  1.00  0.00     0.173 HD
ATOM     23  H   UNL     1      23.976 135.791   7.800  1.00  0.00     0.171 HD
BRANCH  21  24
ATOM     24  C   UNL     1      24.164 136.653   9.674  1.00  0.00     0.050 A 
ATOM     25  C   UNL     1      24.763 137.903   9.881  1.00  0.00     0.027 A 
ATOM     26  C   UNL     1      23.139 136.203  10.570  1.00  0.00     0.005 A 
ATOM     27  C   UNL     1      24.366 138.723  10.933  1.00  0.00     0.003 A 
ATOM     28  C   UNL     1      22.465 134.954  10.481  1.00  0.00     0.011 A 
ATOM     29  C   UNL     1      22.750 137.058  11.637  1.00  0.00    -0.016 A 
ATOM     30  C   UNL     1      23.365 138.305  11.801  1.00  0.00     0.009 A 
ATOM     31  C   UNL     1      21.469 134.578  11.388  1.00  0.00     0.001 A 
ATOM     32  C   UNL     1      21.747 136.666  12.540  1.00  0.00     0.009 A 
ATOM     33  C   UNL     1      21.110 135.435  12.416  1.00  0.00     0.001 A 
ENDBRANCH  21  24
ENDBRANCH  13  18
ENDBRANCH   4   9
ENDBRANCH   1   3
BRANCH   1  34
ATOM     34  N   UNL     1      26.234 136.540   1.700  1.00  0.00    -0.335 N 
BRANCH  34  35
ATOM     35  C   UNL     1      24.774 136.601   1.565  1.00  0.00     0.135 C 
BRANCH  35  36
ATOM     36  C   UNL     1      24.058 136.369   2.906  1.00  0.00     0.099 C 
BRANCH  36  37
ATOM     37  N   UNL     1      23.721 134.957   3.106  1.00  0.00    -0.329 NA
ATOM     38  H   UNL     1      24.556 134.392   2.942  1.00  0.00     0.118 HD
ATOM     39  H   UNL     1      23.054 134.675   2.386  1.00  0.00     0.118 HD
ENDBRANCH  36  37
ENDBRANCH  35  36
ENDBRANCH  34  35
BRANCH  34  40
ATOM     40  C   UNL     1      26.958 135.783   0.674  1.00  0.00     0.148 C 
BRANCH  40  41
ATOM     41  C   UNL     1      26.309 134.426   0.373  1.00  0.00     0.177 C 
BRANCH  41  42
ATOM     42  O   UNL     1      26.198 133.647   1.558  1.00  0.00    -0.395 OA
ATOM     43  H   UNL     1      25.770 134.198   2.237  1.00  0.00     0.210 HD
ENDBRANCH  41  42
ENDBRANCH  40  41
ENDBRANCH  34  40
ENDBRANCH   1  34
TORSDOF 12
ENDMDL
MODEL 2
REMARK VINA RESULT:      -7.5     16.196     20.027
REMARK SMILES CC(C)(C)c1cc(NC(=O)Nc2cccc3ccccc23)n(-c2cccc(C(=O)N(CCN)CCO)c2)n1
REMARK SMILES IDX 28 1 29 2 27 3 23 4 24 5 37 6 25 7 26 8 22 9 5 10 6 11 38 12
REMARK SMILES IDX 7 13 2 14 1 15 3 16 4 17 8 18 9 19 10 20 11 21 12 24 13 25
REMARK SMILES IDX 21 26 14 27 20 28 16 29 15 30 19 31 17 32 18 33 30 34 31 35
REMARK SMILES IDX 32 36 33 37 34 40 35 41 36 42
REMARK H PARENT 8 22 11 23 33 38 33 39 36 43
ROOT
ATOM      1  C   UNL     1       9.443 130.738  -8.876  1.00  0.00     0.254 C 
ATOM      2  O   UNL     1       9.030 131.643  -8.155  1.00  0.00    -0.269 OA
ENDROOT
BRANCH   1   3
ATOM      3  C   UNL     1      10.732 130.117  -8.503  1.00  0.00     0.042 A 
ATOM      4  C   UNL     1      13.147 129.990  -8.677  1.00  0.00     0.068 A 
ATOM      5  C   UNL     1      13.140 128.879  -7.821  1.00  0.00     0.028 A 
ATOM      6  C   UNL     1      11.935 130.612  -9.014  1.00  0.00     0.042 A 
ATOM      7  C   UNL     1      11.929 128.372  -7.339  1.00  0.00     0.003 A 
ATOM      8  C   UNL     1      10.725 128.981  -7.689  1.00  0.00     0.014 A 
BRANCH   4   9
ATOM      9  N   UNL     1      14.363 130.549  -9.166  1.00  0.00    -0.217 N 
ATOM     10  C   UNL     1      15.829 130.950 -10.674  1.00  0.00     0.070 A 
ATOM     11  C   UNL     1      16.017 131.915  -9.656  1.00  0.00     0.073 A 
ATOM     12  N   UNL     1      14.880 130.073 -10.327  1.00  0.00    -0.170 NA
ATOM     13  C   UNL     1      15.137 131.585  -8.647  1.00  0.00     0.138 A 
BRANCH  10  14
ATOM     14  C   UNL     1      16.592 130.783 -11.979  1.00  0.00     0.006 C 
ATOM     15  C   UNL     1      16.125 131.852 -12.987  1.00  0.00     0.017 C 
ATOM     16  C   UNL     1      16.356 129.388 -12.596  1.00  0.00     0.017 C 
ATOM     17  C   UNL     1      18.112 130.940 -11.759  1.00  0.00     0.017 C 
ENDBRANCH  10  14
BRANCH  13  18
ATOM     18  N   UNL     1      15.009 132.082  -7.352  1.00  0.00    -0.292 N 
ATOM     19  C   UNL     1      16.094 132.376  -6.532  1.00  0.00     0.324 C 
ATOM     20  O   UNL     1      17.267 132.251  -6.855  1.00  0.00    -0.248 OA
ATOM     21  N   UNL     1      15.641 132.853  -5.308  1.00  0.00    -0.307 N 
ATOM     22  H   UNL     1      14.109 131.985  -6.905  1.00  0.00     0.173 HD
ATOM     23  H   UNL     1      14.683 133.155  -5.301  1.00  0.00     0.171 HD
BRANCH  21  24
ATOM     24  C   UNL     1      16.404 133.158  -4.149  1.00  0.00     0.050 A 
ATOM     25  C   UNL     1      17.794 133.321  -4.223  1.00  0.00     0.027 A 
ATOM     26  C   UNL     1      15.746 133.272  -2.880  1.00  0.00     0.005 A 
ATOM     27  C   UNL     1      18.544 133.611  -3.087  1.00  0.00     0.003 A 
ATOM     28  C   UNL     1      14.349 133.114  -2.666  1.00  0.00     0.011 A 
ATOM     29  C   UNL     1      16.532 133.570  -1.733  1.00  0.00    -0.016 A 
ATOM     30  C   UNL     1      17.917 133.737  -1.854  1.00  0.00     0.009 A 
ATOM     31  C   UNL     1      13.769 133.244  -1.400  1.00  0.00     0.001 A 
ATOM     32  C   UNL     1      15.935 133.698  -0.468  1.00  0.00     0.009 A 
ATOM     33  C   UNL     1      14.563 133.537  -0.302  1.00  0.00     0.001 A 
ENDBRANCH  21  24
ENDBRANCH  13  18
ENDBRANCH   4   9
ENDBRANCH   1   3
BRANCH   1  34
ATOM     34  N   UNL     1       8.761 130.281 -10.006  1.00  0.00    -0.335 N 
BRANCH  34  35
ATOM     35  C   UNL     1       9.178 130.827 -11.301  1.00  0.00     0.135 C 
BRANCH  35  36
ATOM     36  C   UNL     1       9.877 129.772 -12.176  1.00  0.00     0.099 C 
BRANCH  36  37
ATOM     37  N   UNL     1       9.159 129.545 -13.433  1.00  0.00    -0.329 NA
ATOM     38  H   UNL     1       9.432 128.635 -13.809  1.00  0.00     0.118 HD
ATOM     39  H   UNL     1       9.476 130.231 -14.119  1.00  0.00     0.118 HD
ENDBRANCH  36  37
ENDBRANCH  35  36
ENDBRANCH  34  35
BRANCH  34  40
ATOM     40  C   UNL     1       7.932 129.071 -10.039  1.00  0.00     0.148 C 
BRANCH  40  41
ATOM     41  C   UNL     1       6.512 129.342 -10.552  1.00  0.00     0.177 C 
BRANCH  41  42
ATOM     42  O   UNL     1       5.983 128.192 -11.202  1.00  0.00    -0.395 OA
ATOM     43  H   UNL     1       5.785 128.436 -12.123  1.00  0.00     0.210 HD
ENDBRANCH  41  42
ENDBRANCH  40  41
ENDBRANCH  34  40
ENDBRANCH   1  34
TORSDOF 12
ENDMDL
MODEL 3
REMARK VINA RESULT:      -7.4     13.171     16.986
REMARK SMILES CC(C)(C)c1cc(NC(=O)Nc2cccc3ccccc23)n(-c2cccc(C(=O)N(CCN)CCO)c2)n1
REMARK SMILES IDX 28 1 29 2 27 3 23 4 24 5 37 6 25 7 26 8 22 9 5 10 6 11 38 12
REMARK SMILES IDX 7 13 2 14 1 15 3 16 4 17 8 18 9 19 10 20 11 21 12 24 13 25
REMARK SMILES IDX 21 26 14 27 20 28 16 29 15 30 19 31 17 32 18 33 30 34 31 35
REMARK SMILES IDX 32 36 33 37 34 40 35 41 36 42
REMARK H PARENT 8 22 11 23 33 38 33 39 36 43
ROOT
ATOM      1  C   UNL     1      20.781 133.399  -8.249  1.00  0.00     0.254 C 
ATOM      2  O   UNL     1      20.929 133.723  -7.073  1.00  0.00    -0.269 OA
ENDROOT
BRANCH   1   3
ATOM      3  C   UNL     1      19.470 133.694  -8.867  1.00  0.00     0.042 A 
ATOM      4  C   UNL     1      17.216 133.030  -9.463  1.00  0.00     0.068 A 
ATOM      5  C   UNL     1      17.030 134.268 -10.097  1.00  0.00     0.028 A 
ATOM      6  C   UNL     1      18.442 132.748  -8.842  1.00  0.00     0.042 A 
ATOM      7  C   UNL     1      18.075 135.197 -10.142  1.00  0.00     0.003 A 
ATOM      8  C   UNL     1      19.298 134.906  -9.540  1.00  0.00     0.014 A 
BRANCH   4   9
ATOM      9  N   UNL     1      16.166 132.071  -9.374  1.00  0.00    -0.217 N 
ATOM     10  C   UNL     1      15.064 130.356 -10.029  1.00  0.00     0.070 A 
ATOM     11  C   UNL     1      14.747 130.547  -8.663  1.00  0.00     0.073 A 
ATOM     12  N   UNL     1      15.858 131.337 -10.473  1.00  0.00    -0.170 NA
ATOM     13  C   UNL     1      15.381 131.711  -8.281  1.00  0.00     0.138 A 
BRANCH  10  14
ATOM     14  C   UNL     1      14.567 129.277 -10.979  1.00  0.00     0.006 C 
ATOM     15  C   UNL     1      14.412 129.869 -12.393  1.00  0.00     0.017 C 
ATOM     16  C   UNL     1      13.203 128.713 -10.529  1.00  0.00     0.017 C 
ATOM     17  C   UNL     1      15.558 128.094 -11.043  1.00  0.00     0.017 C 
ENDBRANCH  10  14
BRANCH  13  18
ATOM     18  N   UNL     1      15.284 132.457  -7.110  1.00  0.00    -0.292 N 
ATOM     19  C   UNL     1      16.207 132.381  -6.071  1.00  0.00     0.324 C 
ATOM     20  O   UNL     1      17.205 131.673  -6.076  1.00  0.00    -0.248 OA
ATOM     21  N   UNL     1      15.834 133.243  -5.047  1.00  0.00    -0.307 N 
ATOM     22  H   UNL     1      14.388 132.871  -6.897  1.00  0.00     0.173 HD
ATOM     23  H   UNL     1      15.163 133.943  -5.309  1.00  0.00     0.171 HD
BRANCH  21  24
ATOM     24  C   UNL     1      16.427 133.390  -3.764  1.00  0.00     0.050 A 
ATOM     25  C   UNL     1      17.806 133.601  -3.627  1.00  0.00     0.027 A 
ATOM     26  C   UNL     1      15.607 133.293  -2.592  1.00  0.00     0.005 A 
ATOM     27  C   UNL     1      18.389 133.736  -2.371  1.00  0.00     0.003 A 
ATOM     28  C   UNL     1      14.204 133.065  -2.592  1.00  0.00     0.011 A 
ATOM     29  C   UNL     1      16.225 133.434  -1.320  1.00  0.00    -0.016 A 
ATOM     30  C   UNL     1      17.604 133.657  -1.228  1.00  0.00     0.009 A 
ATOM     31  C   UNL     1      13.461 132.985  -1.410  1.00  0.00     0.001 A 
ATOM     32  C   UNL     1      15.466 133.352  -0.141  1.00  0.00     0.009 A 
ATOM     33  C   UNL     1      14.093 133.130  -0.185  1.00  0.00     0.001 A 
ENDBRANCH  21  24
ENDBRANCH  13  18
ENDBRANCH   4   9
ENDBRANCH   1   3
BRANCH   1  34
ATOM     34  N   UNL     1      21.776 132.779  -9.009  1.00  0.00    -0.335 N 
BRANCH  34  35
ATOM     35  C   UNL     1      21.724 131.317  -9.108  1.00  0.00     0.135 C 
BRANCH  35  36
ATOM     36  C   UNL     1      21.647 130.838 -10.568  1.00  0.00     0.099 C 
BRANCH  36  37
ATOM     37  N   UNL     1      20.296 130.399 -10.927  1.00  0.00    -0.329 NA
ATOM     38  H   UNL     1      20.158 129.446 -10.587  1.00  0.00     0.118 HD
ATOM     39  H   UNL     1      20.232 130.339 -11.944  1.00  0.00     0.118 HD
ENDBRANCH  36  37
ENDBRANCH  35  36
ENDBRANCH  34  35
BRANCH  34  40
ATOM     40  C   UNL     1      22.628 133.474  -9.980  1.00  0.00     0.148 C 
BRANCH  40  41
ATOM     41  C   UNL     1      23.397 134.646  -9.358  1.00  0.00     0.177 C 
BRANCH  41  42
ATOM     42  O   UNL     1      23.875 134.305  -8.062  1.00  0.00    -0.395 OA
ATOM     43  H   UNL     1      23.479 133.451  -7.814  1.00  0.00     0.210 HD
ENDBRANCH  41  42
ENDBRANCH  40  41
ENDBRANCH  34  40
ENDBRANCH   1  34
TORSDOF 12
ENDMDL
MODEL 4
REMARK VINA RESULT:      -7.2      1.809      2.714
REMARK SMILES CC(C)(C)c1cc(NC(=O)Nc2cccc3ccccc23)n(-c2cccc(C(=O)N(CCN)CCO)c2)n1
REMARK SMILES IDX 28 1 29 2 27 3 23 4 24 5 37 6 25 7 26 8 22 9 5 10 6 11 38 12
REMARK SMILES IDX 7 13 2 14 1 15 3 16 4 17 8 18 9 19 10 20 11 21 12 24 13 25
REMARK SMILES IDX 21 26 14 27 20 28 16 29 15 30 19 31 17 32 18 33 30 34 31 35
REMARK SMILES IDX 32 36 33 37 34 40 35 41 36 42
REMARK H PARENT 8 22 11 23 33 38 33 39 36 43
ROOT
ATOM      1  C   UNL     1      27.719 138.174   2.920  1.00  0.00     0.254 C 
ATOM      2  O   UNL     1      27.901 139.227   3.529  1.00  0.00    -0.269 OA
ENDROOT
BRANCH   1   3
ATOM      3  C   UNL     1      26.727 137.235   3.486  1.00  0.00     0.042 A 
ATOM      4  C   UNL     1      26.186 135.257   4.779  1.00  0.00     0.068 A 
ATOM      5  C   UNL     1      24.828 135.449   4.485  1.00  0.00     0.028 A 
ATOM      6  C   UNL     1      27.137 136.159   4.278  1.00  0.00     0.042 A 
ATOM      7  C   UNL     1      24.430 136.511   3.666  1.00  0.00     0.003 A 
ATOM      8  C   UNL     1      25.379 137.396   3.155  1.00  0.00     0.014 A 
BRANCH   4   9
ATOM      9  N   UNL     1      26.624 134.202   5.631  1.00  0.00    -0.217 N 
ATOM     10  C   UNL     1      27.925 132.599   6.198  1.00  0.00     0.070 A 
ATOM     11  C   UNL     1      27.247 133.008   7.371  1.00  0.00     0.073 A 
ATOM     12  N   UNL     1      27.476 133.271   5.132  1.00  0.00    -0.170 NA
ATOM     13  C   UNL     1      26.341 133.970   6.975  1.00  0.00     0.138 A 
BRANCH  10  14
ATOM     14  C   UNL     1      28.970 131.507   6.035  1.00  0.00     0.006 C 
ATOM     15  C   UNL     1      29.563 131.570   4.614  1.00  0.00     0.017 C 
ATOM     16  C   UNL     1      28.361 130.106   6.253  1.00  0.00     0.017 C 
ATOM     17  C   UNL     1      30.115 131.677   7.057  1.00  0.00     0.017 C 
ENDBRANCH  10  14
BRANCH  13  18
ATOM     18  N   UNL     1      25.308 134.589   7.675  1.00  0.00    -0.292 N 
ATOM     19  C   UNL     1      25.517 135.496   8.709  1.00  0.00     0.324 C 
ATOM     20  O   UNL     1      26.615 135.863   9.103  1.00  0.00    -0.248 OA
ATOM     21  N   UNL     1      24.294 135.935   9.202  1.00  0.00    -0.307 N 
ATOM     22  H   UNL     1      24.389 134.177   7.604  1.00  0.00     0.173 HD
ATOM     23  H   UNL     1      23.509 135.760   8.600  1.00  0.00     0.171 HD
BRANCH  21  24
ATOM     24  C   UNL     1      24.050 136.769  10.326  1.00  0.00     0.050 A 
ATOM     25  C   UNL     1      24.045 138.165  10.201  1.00  0.00     0.027 A 
ATOM     26  C   UNL     1      23.834 136.175  11.613  1.00  0.00     0.005 A 
ATOM     27  C   UNL     1      23.816 138.983  11.303  1.00  0.00     0.003 A 
ATOM     28  C   UNL     1      23.831 134.778  11.878  1.00  0.00     0.011 A 
ATOM     29  C   UNL     1      23.601 137.030  12.724  1.00  0.00    -0.016 A 
ATOM     30  C   UNL     1      23.592 138.420  12.552  1.00  0.00     0.009 A 
ATOM     31  C   UNL     1      23.608 134.262  13.159  1.00  0.00     0.001 A 
ATOM     32  C   UNL     1      23.378 136.498  14.005  1.00  0.00     0.009 A 
ATOM     33  C   UNL     1      23.381 135.123  14.222  1.00  0.00     0.001 A 
ENDBRANCH  21  24
ENDBRANCH  13  18
ENDBRANCH   4   9
ENDBRANCH   1   3
BRANCH   1  34
ATOM     34  N   UNL     1      28.393 137.838   1.744  1.00  0.00    -0.335 N 
BRANCH  34  35
ATOM     35  C   UNL     1      29.819 137.514   1.863  1.00  0.00     0.135 C 
BRANCH  35  36
ATOM     36  C   UNL     1      30.713 138.598   1.237  1.00  0.00     0.099 C 
BRANCH  36  37
ATOM     37  N   UNL     1      30.247 139.947   1.569  1.00  0.00    -0.329 NA
ATOM     38  H   UNL     1      29.699 139.904   2.430  1.00  0.00     0.118 HD
ATOM     39  H   UNL     1      29.596 140.256   0.845  1.00  0.00     0.118 HD
ENDBRANCH  36  37
ENDBRANCH  35  36
ENDBRANCH  34  35
BRANCH  34  40
ATOM     40  C   UNL     1      27.732 137.443   0.496  1.00  0.00     0.148 C 
BRANCH  40  41
ATOM     41  C   UNL     1      27.520 135.927   0.393  1.00  0.00     0.177 C 
BRANCH  41  42
ATOM     42  O   UNL     1      26.843 135.593  -0.812  1.00  0.00    -0.395 OA
ATOM     43  H   UNL     1      26.134 134.963  -0.590  1.00  0.00     0.210 HD
ENDBRANCH  41  42
ENDBRANCH  40  41
ENDBRANCH  34  40
ENDBRANCH   1  34
TORSDOF 12
ENDMDL
MODEL 5
REMARK VINA RESULT:      -7.0     18.863     23.284
REMARK SMILES CC(C)(C)c1cc(NC(=O)Nc2cccc3ccccc23)n(-c2cccc(C(=O)N(CCN)CCO)c2)n1
REMARK SMILES IDX 28 1 29 2 27 3 23 4 24 5 37 6 25 7 26 8 22 9 5 10 6 11 38 12
REMARK SMILES IDX 7 13 2 14 1 15 3 16 4 17 8 18 9 19 10 20 11 21 12 24 13 25
REMARK SMILES IDX 21 26 14 27 20 28 16 29 15 30 19 31 17 32 18 33 30 34 31 35
REMARK SMILES IDX 32 36 33 37 34 40 35 41 36 42
REMARK H PARENT 8 22 11 23 33 38 33 39 36 43
ROOT
ATOM      1  C   UNL     1      10.558 122.951 -10.337  1.00  0.00     0.254 C 
ATOM      2  O   UNL     1       9.458 123.042 -10.879  1.00  0.00    -0.269 OA
ENDROOT
BRANCH   1   3
ATOM      3  C   UNL     1      11.408 124.160 -10.336  1.00  0.00     0.042 A 
ATOM      4  C   UNL     1      11.664 126.566 -10.182  1.00  0.00     0.068 A 
ATOM      5  C   UNL     1      13.042 126.424 -10.400  1.00  0.00     0.028 A 
ATOM      6  C   UNL     1      10.847 125.426 -10.146  1.00  0.00     0.042 A 
ATOM      7  C   UNL     1      13.591 125.156 -10.619  1.00  0.00     0.003 A 
ATOM      8  C   UNL     1      12.774 124.026 -10.600  1.00  0.00     0.014 A 
BRANCH   4   9
ATOM      9  N   UNL     1      11.074 127.839  -9.929  1.00  0.00    -0.217 N 
ATOM     10  C   UNL     1       9.450 129.233  -9.876  1.00  0.00     0.070 A 
ATOM     11  C   UNL     1      10.444 129.732  -9.002  1.00  0.00     0.073 A 
ATOM     12  N   UNL     1       9.878 128.129 -10.500  1.00  0.00    -0.170 NA
ATOM     13  C   UNL     1      11.523 128.882  -9.122  1.00  0.00     0.138 A 
BRANCH  10  14
ATOM     14  C   UNL     1       8.088 129.824 -10.204  1.00  0.00     0.006 C 
ATOM     15  C   UNL     1       8.095 130.360 -11.649  1.00  0.00     0.017 C 
ATOM     16  C   UNL     1       7.732 130.983  -9.251  1.00  0.00     0.017 C 
ATOM     17  C   UNL     1       6.975 128.761 -10.075  1.00  0.00     0.017 C 
ENDBRANCH  10  14
BRANCH  13  18
ATOM     18  N   UNL     1      12.821 128.984  -8.627  1.00  0.00    -0.292 N 
ATOM     19  C   UNL     1      13.594 130.136  -8.731  1.00  0.00     0.324 C 
ATOM     20  O   UNL     1      13.221 131.182  -9.243  1.00  0.00    -0.248 OA
ATOM     21  N   UNL     1      14.836 129.923  -8.144  1.00  0.00    -0.307 N 
ATOM     22  H   UNL     1      13.307 128.123  -8.419  1.00  0.00     0.173 HD
ATOM     23  H   UNL     1      14.883 129.126  -7.535  1.00  0.00     0.171 HD
BRANCH  21  24
ATOM     24  C   UNL     1      15.961 130.791  -8.132  1.00  0.00     0.050 A 
ATOM     25  C   UNL     1      16.536 131.243  -9.328  1.00  0.00     0.027 A 
ATOM     26  C   UNL     1      16.533 131.187  -6.879  1.00  0.00     0.005 A 
ATOM     27  C   UNL     1      17.643 132.086  -9.318  1.00  0.00     0.003 A 
ATOM     28  C   UNL     1      16.058 130.788  -5.600  1.00  0.00     0.011 A 
ATOM     29  C   UNL     1      17.664 132.050  -6.893  1.00  0.00    -0.016 A 
ATOM     30  C   UNL     1      18.199 132.488  -8.110  1.00  0.00     0.009 A 
ATOM     31  C   UNL     1      16.661 131.216  -4.413  1.00  0.00     0.001 A 
ATOM     32  C   UNL     1      18.258 132.471  -5.693  1.00  0.00     0.009 A 
ATOM     33  C   UNL     1      17.761 132.059  -4.460  1.00  0.00     0.001 A 
ENDBRANCH  21  24
ENDBRANCH  13  18
ENDBRANCH   4   9
ENDBRANCH   1   3
BRANCH   1  34
ATOM     34  N   UNL     1      11.026 121.780  -9.737  1.00  0.00    -0.335 N 
BRANCH  34  35
ATOM     35  C   UNL     1      11.535 120.732 -10.628  1.00  0.00     0.135 C 
BRANCH  35  36
ATOM     36  C   UNL     1      10.488 119.636 -10.891  1.00  0.00     0.099 C 
BRANCH  36  37
ATOM     37  N   UNL     1       9.240 120.192 -11.420  1.00  0.00    -0.329 NA
ATOM     38  H   UNL     1       8.731 119.453 -11.908  1.00  0.00     0.118 HD
ATOM     39  H   UNL     1       9.467 120.885 -12.134  1.00  0.00     0.118 HD
ENDBRANCH  36  37
ENDBRANCH  35  36
ENDBRANCH  34  35
BRANCH  34  40
ATOM     40  C   UNL     1      11.373 121.660  -8.317  1.00  0.00     0.148 C 
BRANCH  40  41
ATOM     41  C   UNL     1      10.861 120.356  -7.692  1.00  0.00     0.177 C 
BRANCH  41  42
ATOM     42  O   UNL     1      11.359 120.203  -6.368  1.00  0.00    -0.395 OA
ATOM     43  H   UNL     1      10.596 120.180  -5.764  1.00  0.00     0.210 HD
ENDBRANCH  41  42
ENDBRANCH  40  41
ENDBRANCH  34  40
ENDBRANCH   1  34
TORSDOF 12
ENDMDL
MODEL 6
REMARK VINA RESULT:      -7.0      2.783      5.962
REMARK SMILES CC(C)(C)c1cc(NC(=O)Nc2cccc3ccccc23)n(-c2cccc(C(=O)N(CCN)CCO)c2)n1
REMARK SMILES IDX 28 1 29 2 27 3 23 4 24 5 37 6 25 7 26 8 22 9 5 10 6 11 38 12
REMARK SMILES IDX 7 13 2 14 1 15 3 16 4 17 8 18 9 19 10 20 11 21 12 24 13 25
REMARK SMILES IDX 21 26 14 27 20 28 16 29 15 30 19 31 17 32 18 33 30 34 31 35
REMARK SMILES IDX 32 36 33 37 34 40 35 41 36 42
REMARK H PARENT 8 22 11 23 33 38 33 39 36 43
ROOT
ATOM      1  C   UNL     1      31.024 133.109   8.677  1.00  0.00     0.254 C 
ATOM      2  O   UNL     1      31.048 133.246   9.898  1.00  0.00    -0.269 OA
ENDROOT
BRANCH   1   3
ATOM      3  C   UNL     1      29.724 132.761   8.065  1.00  0.00     0.042 A 
ATOM      4  C   UNL     1      27.755 133.375   6.789  1.00  0.00     0.068 A 
ATOM      5  C   UNL     1      27.245 132.082   6.975  1.00  0.00     0.028 A 
ATOM      6  C   UNL     1      29.004 133.711   7.335  1.00  0.00     0.042 A 
ATOM      7  C   UNL     1      27.959 131.147   7.732  1.00  0.00     0.003 A 
ATOM      8  C   UNL     1      29.191 131.489   8.288  1.00  0.00     0.014 A 
BRANCH   4   9
ATOM      9  N   UNL     1      27.069 134.344   6.002  1.00  0.00    -0.217 N 
ATOM     10  C   UNL     1      26.247 135.114   4.181  1.00  0.00     0.070 A 
ATOM     11  C   UNL     1      25.603 135.798   5.240  1.00  0.00     0.073 A 
ATOM     12  N   UNL     1      27.196 134.297   4.652  1.00  0.00    -0.170 NA
ATOM     13  C   UNL     1      26.212 135.368   6.401  1.00  0.00     0.138 A 
BRANCH  10  14
ATOM     14  C   UNL     1      26.033 135.265   2.683  1.00  0.00     0.006 C 
ATOM     15  C   UNL     1      27.281 135.911   2.049  1.00  0.00     0.017 C 
ATOM     16  C   UNL     1      24.809 136.152   2.375  1.00  0.00     0.017 C 
ATOM     17  C   UNL     1      25.791 133.894   2.016  1.00  0.00     0.017 C 
ENDBRANCH  10  14
BRANCH  13  18
ATOM     18  N   UNL     1      26.098 135.825   7.711  1.00  0.00    -0.292 N 
ATOM     19  C   UNL     1      24.892 136.215   8.286  1.00  0.00     0.324 C 
ATOM     20  O   UNL     1      23.808 136.184   7.721  1.00  0.00    -0.248 OA
ATOM     21  N   UNL     1      25.107 136.620   9.599  1.00  0.00    -0.307 N 
ATOM     22  H   UNL     1      26.945 136.125   8.173  1.00  0.00     0.173 HD
ATOM     23  H   UNL     1      25.984 136.327   9.992  1.00  0.00     0.171 HD
BRANCH  21  24
ATOM     24  C   UNL     1      24.176 137.199  10.502  1.00  0.00     0.050 A 
ATOM     25  C   UNL     1      23.799 138.544  10.385  1.00  0.00     0.027 A 
ATOM     26  C   UNL     1      23.635 136.403  11.565  1.00  0.00     0.005 A 
ATOM     27  C   UNL     1      22.894 139.114  11.274  1.00  0.00     0.003 A 
ATOM     28  C   UNL     1      23.946 135.037  11.803  1.00  0.00     0.011 A 
ATOM     29  C   UNL     1      22.711 137.008  12.460  1.00  0.00    -0.016 A 
ATOM     30  C   UNL     1      22.352 138.352  12.301  1.00  0.00     0.009 A 
ATOM     31  C   UNL     1      23.378 134.315  12.858  1.00  0.00     0.001 A 
ATOM     32  C   UNL     1      22.148 136.270  13.515  1.00  0.00     0.009 A 
ATOM     33  C   UNL     1      22.478 134.933  13.713  1.00  0.00     0.001 A 
ENDBRANCH  21  24
ENDBRANCH  13  18
ENDBRANCH   4   9
ENDBRANCH   1   3
BRANCH   1  34
ATOM     34  N   UNL     1      32.149 133.265   7.863  1.00  0.00    -0.335 N 
BRANCH  34  35
ATOM     35  C   UNL     1      32.991 134.440   8.109  1.00  0.00     0.135 C 
BRANCH  35  36
ATOM     36  C   UNL     1      32.306 135.746   7.670  1.00  0.00     0.099 C 
BRANCH  36  37
ATOM     37  N   UNL     1      32.175 136.692   8.782  1.00  0.00    -0.329 NA
ATOM     38  H   UNL     1      31.182 136.853   8.961  1.00  0.00     0.118 HD
ATOM     39  H   UNL     1      32.551 137.594   8.489  1.00  0.00     0.118 HD
ENDBRANCH  36  37
ENDBRANCH  35  36
ENDBRANCH  34  35
BRANCH  34  40
ATOM     40  C   UNL     1      32.735 132.195   7.049  1.00  0.00     0.148 C 
BRANCH  40  41
ATOM     41  C   UNL     1      32.915 130.888   7.832  1.00  0.00     0.177 C 
BRANCH  41  42
ATOM     42  O   UNL     1      33.075 129.787   6.946  1.00  0.00    -0.395 OA
ATOM     43  H   UNL     1      32.587 129.031   7.319  1.00  0.00     0.210 HD
ENDBRANCH  41  42
ENDBRANCH  40  41
ENDBRANCH  34  40
ENDBRANCH   1  34
TORSDOF 12
ENDMDL
MODEL 7
REMARK VINA RESULT:      -6.8      3.129      6.272
REMARK SMILES CC(C)(C)c1cc(NC(=O)Nc2cccc3ccccc23)n(-c2cccc(C(=O)N(CCN)CCO)c2)n1
REMARK SMILES IDX 28 1 29 2 27 3 23 4 24 5 37 6 25 7 26 8 22 9 5 10 6 11 38 12
REMARK SMILES IDX 7 13 2 14 1 15 3 16 4 17 8 18 9 19 10 20 11 21 12 24 13 25
REMARK SMILES IDX 21 26 14 27 20 28 16 29 15 30 19 31 17 32 18 33 30 34 31 35
REMARK SMILES IDX 32 36 33 37 34 40 35 41 36 42
REMARK H PARENT 8 22 11 23 33 38 33 39 36 43
ROOT
ATOM      1  C   UNL     1      31.530 134.313   9.076  1.00  0.00     0.254 C 
ATOM      2  O   UNL     1      31.526 134.647  10.259  1.00  0.00    -0.269 OA
ENDROOT
BRANCH   1   3
ATOM      3  C   UNL     1      30.311 133.655   8.560  1.00  0.00     0.042 A 
ATOM      4  C   UNL     1      28.209 133.742   7.355  1.00  0.00     0.068 A 
ATOM      5  C   UNL     1      27.993 132.389   7.655  1.00  0.00     0.028 A 
ATOM      6  C   UNL     1      29.378 134.373   7.808  1.00  0.00     0.042 A 
ATOM      7  C   UNL     1      28.918 131.686   8.433  1.00  0.00     0.003 A 
ATOM      8  C   UNL     1      30.069 132.320   8.897  1.00  0.00     0.014 A 
BRANCH   4   9
ATOM      9  N   UNL     1      27.302 134.482   6.543  1.00  0.00    -0.217 N 
ATOM     10  C   UNL     1      26.202 134.871   4.747  1.00  0.00     0.070 A 
ATOM     11  C   UNL     1      25.551 135.579   5.786  1.00  0.00     0.073 A 
ATOM     12  N   UNL     1      27.312 134.279   5.201  1.00  0.00    -0.170 NA
ATOM     13  C   UNL     1      26.325 135.404   6.914  1.00  0.00     0.138 A 
BRANCH  10  14
ATOM     14  C   UNL     1      25.832 134.790   3.275  1.00  0.00     0.006 C 
ATOM     15  C   UNL     1      24.360 135.209   3.091  1.00  0.00     0.017 C 
ATOM     16  C   UNL     1      26.007 133.357   2.727  1.00  0.00     0.017 C 
ATOM     17  C   UNL     1      26.723 135.722   2.425  1.00  0.00     0.017 C 
ENDBRANCH  10  14
BRANCH  13  18
ATOM     18  N   UNL     1      26.255 136.006   8.168  1.00  0.00    -0.292 N 
ATOM     19  C   UNL     1      25.066 136.191   8.865  1.00  0.00     0.324 C 
ATOM     20  O   UNL     1      23.964 135.836   8.471  1.00  0.00    -0.248 OA
ATOM     21  N   UNL     1      25.325 136.816  10.079  1.00  0.00    -0.307 N 
ATOM     22  H   UNL     1      27.051 136.551   8.465  1.00  0.00     0.173 HD
ATOM     23  H   UNL     1      26.286 136.788  10.370  1.00  0.00     0.171 HD
BRANCH  21  24
ATOM     24  C   UNL     1      24.392 137.293  11.038  1.00  0.00     0.050 A 
ATOM     25  C   UNL     1      24.020 138.644  11.073  1.00  0.00     0.027 A 
ATOM     26  C   UNL     1      23.843 136.383  12.001  1.00  0.00     0.005 A 
ATOM     27  C   UNL     1      23.112 139.113  12.017  1.00  0.00     0.003 A 
ATOM     28  C   UNL     1      24.148 134.997  12.084  1.00  0.00     0.011 A 
ATOM     29  C   UNL     1      22.917 136.886  12.956  1.00  0.00    -0.016 A 
ATOM     30  C   UNL     1      22.563 138.241  12.948  1.00  0.00     0.009 A 
ATOM     31  C   UNL     1      23.572 134.163  13.047  1.00  0.00     0.001 A 
ATOM     32  C   UNL     1      22.346 136.035  13.917  1.00  0.00     0.009 A 
ATOM     33  C   UNL     1      22.671 134.683  13.963  1.00  0.00     0.001 A 
ENDBRANCH  21  24
ENDBRANCH  13  18
ENDBRANCH   4   9
ENDBRANCH   1   3
BRANCH   1  34
ATOM     34  N   UNL     1      32.612 134.525   8.220  1.00  0.00    -0.335 N 
BRANCH  34  35
ATOM     35  C   UNL     1      33.351 133.340   7.773  1.00  0.00     0.135 C 
BRANCH  35  36
ATOM     36  C   UNL     1      34.255 132.770   8.880  1.00  0.00     0.099 C 
BRANCH  36  37
ATOM     37  N   UNL     1      35.221 131.804   8.350  1.00  0.00    -0.329 NA
ATOM     38  H   UNL     1      35.565 131.227   9.119  1.00  0.00     0.118 HD
ATOM     39  H   UNL     1      36.036 132.313   8.005  1.00  0.00     0.118 HD
ENDBRANCH  36  37
ENDBRANCH  35  36
ENDBRANCH  34  35
BRANCH  34  40
ATOM     40  C   UNL     1      32.841 135.764   7.467  1.00  0.00     0.148 C 
BRANCH  40  41
ATOM     41  C   UNL     1      33.960 136.623   8.069  1.00  0.00     0.177 C 
BRANCH  41  42
ATOM     42  O   UNL     1      33.994 136.487   9.485  1.00  0.00    -0.395 OA
ATOM     43  H   UNL     1      33.265 135.896   9.745  1.00  0.00     0.210 HD
ENDBRANCH  41  42
ENDBRANCH  40  41
ENDBRANCH  34  40
ENDBRANCH   1  34
TORSDOF 12
ENDMDL
MODEL 8
REMARK VINA RESULT:      -6.8      4.569      9.793
REMARK SMILES CC(C)(C)c1cc(NC(=O)Nc2cccc3ccccc23)n(-c2cccc(C(=O)N(CCN)CCO)c2)n1
REMARK SMILES IDX 28 1 29 2 27 3 23 4 24 5 37 6 25 7 26 8 22 9 5 10 6 11 38 12
REMARK SMILES IDX 7 13 2 14 1 15 3 16 4 17 8 18 9 19 10 20 11 21 12 24 13 25
REMARK SMILES IDX 21 26 14 27 20 28 16 29 15 30 19 31 17 32 18 33 30 34 31 35
REMARK SMILES IDX 32 36 33 37 34 40 35 41 36 42
REMARK H PARENT 8 22 11 23 33 38 33 39 36 43
ROOT
ATOM      1  C   UNL     1      30.034 133.138   8.386  1.00  0.00     0.254 C 
ATOM      2  O   UNL     1      29.994 132.556   9.468  1.00  0.00    -0.269 OA
ENDROOT
BRANCH   1   3
ATOM      3  C   UNL     1      28.902 132.917   7.462  1.00  0.00     0.042 A 
ATOM      4  C   UNL     1      27.785 133.327   5.349  1.00  0.00     0.068 A 
ATOM      5  C   UNL     1      26.717 132.520   5.769  1.00  0.00     0.028 A 
ATOM      6  C   UNL     1      28.883 133.520   6.201  1.00  0.00     0.042 A 
ATOM      7  C   UNL     1      26.731 131.944   7.044  1.00  0.00     0.003 A 
ATOM      8  C   UNL     1      27.815 132.153   7.896  1.00  0.00     0.014 A 
BRANCH   4   9
ATOM      9  N   UNL     1      27.817 133.907   4.048  1.00  0.00    -0.217 N 
ATOM     10  C   UNL     1      27.448 135.462   2.623  1.00  0.00     0.070 A 
ATOM     11  C   UNL     1      28.451 134.630   2.069  1.00  0.00     0.073 A 
ATOM     12  N   UNL     1      27.009 134.965   3.785  1.00  0.00    -0.170 NA
ATOM     13  C   UNL     1      28.606 133.578   2.948  1.00  0.00     0.138 A 
BRANCH  10  14
ATOM     14  C   UNL     1      26.822 136.717   2.036  1.00  0.00     0.006 C 
ATOM     15  C   UNL     1      25.933 136.335   0.837  1.00  0.00     0.017 C 
ATOM     16  C   UNL     1      27.899 137.711   1.553  1.00  0.00     0.017 C 
ATOM     17  C   UNL     1      25.955 137.448   3.084  1.00  0.00     0.017 C 
ENDBRANCH  10  14
BRANCH  13  18
ATOM     18  N   UNL     1      29.326 132.392   2.829  1.00  0.00    -0.292 N 
ATOM     19  C   UNL     1      30.646 132.249   3.246  1.00  0.00     0.324 C 
ATOM     20  O   UNL     1      31.309 133.131   3.775  1.00  0.00    -0.248 OA
ATOM     21  N   UNL     1      31.081 130.954   2.993  1.00  0.00    -0.307 N 
ATOM     22  H   UNL     1      28.968 131.695   2.192  1.00  0.00     0.173 HD
ATOM     23  H   UNL     1      30.348 130.290   2.820  1.00  0.00     0.171 HD
BRANCH  21  24
ATOM     24  C   UNL     1      32.387 130.420   3.155  1.00  0.00     0.050 A 
ATOM     25  C   UNL     1      33.256 130.296   2.062  1.00  0.00     0.027 A 
ATOM     26  C   UNL     1      32.813 129.976   4.450  1.00  0.00     0.005 A 
ATOM     27  C   UNL     1      34.533 129.765   2.218  1.00  0.00     0.003 A 
ATOM     28  C   UNL     1      32.026 130.031   5.633  1.00  0.00     0.011 A 
ATOM     29  C   UNL     1      34.122 129.438   4.585  1.00  0.00    -0.016 A 
ATOM     30  C   UNL     1      34.963 129.343   3.469  1.00  0.00     0.009 A 
ATOM     31  C   UNL     1      32.505 129.585   6.869  1.00  0.00     0.001 A 
ATOM     32  C   UNL     1      34.589 128.994   5.833  1.00  0.00     0.009 A 
ATOM     33  C   UNL     1      33.787 129.067   6.968  1.00  0.00     0.001 A 
ENDBRANCH  21  24
ENDBRANCH  13  18
ENDBRANCH   4   9
ENDBRANCH   1   3
BRANCH   1  34
ATOM     34  N   UNL     1      31.080 133.981   8.004  1.00  0.00    -0.335 N 
BRANCH  34  35
ATOM     35  C   UNL     1      31.231 135.235   8.749  1.00  0.00     0.135 C 
BRANCH  35  36
ATOM     36  C   UNL     1      30.112 136.240   8.425  1.00  0.00     0.099 C 
BRANCH  36  37
ATOM     37  N   UNL     1      30.631 137.439   7.762  1.00  0.00    -0.329 NA
ATOM     38  H   UNL     1      30.191 138.262   8.177  1.00  0.00     0.118 HD
ATOM     39  H   UNL     1      30.330 137.429   6.787  1.00  0.00     0.118 HD
ENDBRANCH  36  37
ENDBRANCH  35  36
ENDBRANCH  34  35
BRANCH  34  40
ATOM     40  C   UNL     1      32.222 133.562   7.184  1.00  0.00     0.148 C 
BRANCH  40  41
ATOM     41  C   UNL     1      33.532 133.508   7.981  1.00  0.00     0.177 C 
BRANCH  41  42
ATOM     42  O   UNL     1      33.629 132.290   8.709  1.00  0.00    -0.395 OA
ATOM     43  H   UNL     1      33.312 131.573   8.133  1.00  0.00     0.210 HD
ENDBRANCH  41  42
ENDBRANCH  40  41
ENDBRANCH  34  40
ENDBRANCH   1  34
TORSDOF 12
ENDMDL
MODEL 9
REMARK VINA RESULT:      -6.7     23.266     27.320
REMARK SMILES CC(C)(C)c1cc(NC(=O)Nc2cccc3ccccc23)n(-c2cccc(C(=O)N(CCN)CCO)c2)n1
REMARK SMILES IDX 28 1 29 2 27 3 23 4 24 5 37 6 25 7 26 8 22 9 5 10 6 11 38 12
REMARK SMILES IDX 7 13 2 14 1 15 3 16 4 17 8 18 9 19 10 20 11 21 12 24 13 25
REMARK SMILES IDX 21 26 14 27 20 28 16 29 15 30 19 31 17 32 18 33 30 34 31 35
REMARK SMILES IDX 32 36 33 37 34 40 35 41 36 42
REMARK H PARENT 8 22 11 23 33 38 33 39 36 43
ROOT
ATOM      1  C   UNL     1      10.481 121.561  -9.595  1.00  0.00     0.254 C 
ATOM      2  O   UNL     1       9.823 121.856  -8.599  1.00  0.00    -0.269 OA
ENDROOT
BRANCH   1   3
ATOM      3  C   UNL     1      10.737 122.639 -10.574  1.00  0.00     0.042 A 
ATOM      4  C   UNL     1      10.060 123.961 -12.491  1.00  0.00     0.068 A 
ATOM      5  C   UNL     1      11.286 124.641 -12.442  1.00  0.00     0.028 A 
ATOM      6  C   UNL     1       9.786 122.958 -11.547  1.00  0.00     0.042 A 
ATOM      7  C   UNL     1      12.244 124.294 -11.482  1.00  0.00     0.003 A 
ATOM      8  C   UNL     1      11.976 123.286 -10.558  1.00  0.00     0.014 A 
BRANCH   4   9
ATOM      9  N   UNL     1       9.052 124.305 -13.436  1.00  0.00    -0.217 N 
ATOM     10  C   UNL     1       8.002 124.105 -15.292  1.00  0.00     0.070 A 
ATOM     11  C   UNL     1       7.136 124.788 -14.405  1.00  0.00     0.073 A 
ATOM     12  N   UNL     1       9.194 123.894 -14.722  1.00  0.00    -0.170 NA
ATOM     13  C   UNL     1       7.859 125.000 -13.250  1.00  0.00     0.138 A 
BRANCH  10  14
ATOM     14  C   UNL     1       7.755 123.692 -16.734  1.00  0.00     0.006 C 
ATOM     15  C   UNL     1       8.038 124.887 -17.666  1.00  0.00     0.017 C 
ATOM     16  C   UNL     1       6.296 123.237 -16.948  1.00  0.00     0.017 C 
ATOM     17  C   UNL     1       8.670 122.517 -17.142  1.00  0.00     0.017 C 
ENDBRANCH  10  14
BRANCH  13  18
ATOM     18  N   UNL     1       7.567 125.762 -12.121  1.00  0.00    -0.292 N 
ATOM     19  C   UNL     1       8.055 127.049 -11.917  1.00  0.00     0.324 C 
ATOM     20  O   UNL     1       8.770 127.657 -12.701  1.00  0.00    -0.248 OA
ATOM     21  N   UNL     1       7.587 127.542 -10.704  1.00  0.00    -0.307 N 
ATOM     22  H   UNL     1       7.204 125.276 -11.315  1.00  0.00     0.173 HD
ATOM     23  H   UNL     1       6.803 127.043 -10.321  1.00  0.00     0.171 HD
BRANCH  21  24
ATOM     24  C   UNL     1       7.933 128.759 -10.060  1.00  0.00     0.050 A 
ATOM     25  C   UNL     1       7.120 129.895 -10.178  1.00  0.00     0.027 A 
ATOM     26  C   UNL     1       9.147 128.836  -9.300  1.00  0.00     0.005 A 
ATOM     27  C   UNL     1       7.463 131.090  -9.555  1.00  0.00     0.003 A 
ATOM     28  C   UNL     1      10.065 127.766  -9.115  1.00  0.00     0.011 A 
ATOM     29  C   UNL     1       9.476 130.068  -8.671  1.00  0.00    -0.016 A 
ATOM     30  C   UNL     1       8.629 131.175  -8.805  1.00  0.00     0.009 A 
ATOM     31  C   UNL     1      11.231 127.906  -8.356  1.00  0.00     0.001 A 
ATOM     32  C   UNL     1      10.651 130.194  -7.911  1.00  0.00     0.009 A 
ATOM     33  C   UNL     1      11.523 129.120  -7.754  1.00  0.00     0.001 A 
ENDBRANCH  21  24
ENDBRANCH  13  18
ENDBRANCH   4   9
ENDBRANCH   1   3
BRANCH   1  34
ATOM     34  N   UNL     1      10.984 120.280  -9.834  1.00  0.00    -0.335 N 
BRANCH  34  35
ATOM     35  C   UNL     1      11.144 119.878 -11.235  1.00  0.00     0.135 C 
BRANCH  35  36
ATOM     36  C   UNL     1       9.830 119.359 -11.843  1.00  0.00     0.099 C 
BRANCH  36  37
ATOM     37  N   UNL     1       9.916 119.231 -13.300  1.00  0.00    -0.329 NA
ATOM     38  H   UNL     1       9.458 120.037 -13.729  1.00  0.00     0.118 HD
ATOM     39  H   UNL     1       9.370 118.419 -13.590  1.00  0.00     0.118 HD
ENDBRANCH  36  37
ENDBRANCH  35  36
ENDBRANCH  34  35
BRANCH  34  40
ATOM     40  C   UNL     1      11.682 119.466  -8.833  1.00  0.00     0.148 C 
BRANCH  40  41
ATOM     41  C   UNL     1      12.179 118.130  -9.401  1.00  0.00     0.177 C 
BRANCH  41  42
ATOM     42  O   UNL     1      13.496 117.848  -8.944  1.00  0.00    -0.395 OA
ATOM     43  H   UNL     1      13.963 118.695  -8.838  1.00  0.00     0.210 HD
ENDBRANCH  41  42
ENDBRANCH  40  41
ENDBRANCH  34  40
ENDBRANCH   1  34
TORSDOF 12
ENDMDL
