MODEL 1
REMARK VINA RESULT:      -6.3      0.000      0.000
REMARK SMILES CC(=O)c1ccccc1-c1ncnc2[nH]ccc12
REMARK SMILES IDX 4 1 5 2 6 3 7 4 8 5 9 6 2 7 3 8 1 9 10 10 11 11 18 12 12 13
REMARK SMILES IDX 17 14 14 15 13 16 16 17 15 18
REMARK H PARENT 15 19
ROOT
ATOM      1  C   UNL     1      22.607 134.864  12.883  1.00  0.00     0.027 A 
ATOM      2  C   UNL     1      22.727 133.596  13.476  1.00  0.00     0.012 A 
ATOM      3  C   UNL     1      23.538 133.419  14.595  1.00  0.00     0.001 A 
ATOM      4  C   UNL     1      24.230 134.504  15.123  1.00  0.00     0.001 A 
ATOM      5  C   UNL     1      24.129 135.760  14.519  1.00  0.00     0.011 A 
ATOM      6  C   UNL     1      23.334 135.965  13.375  1.00  0.00     0.012 A 
ENDROOT
BRANCH   1   7
ATOM      7  C   UNL     1      21.674 134.962  11.735  1.00  0.00     0.160 C 
ATOM      8  O   UNL     1      20.494 135.230  11.947  1.00  0.00    -0.294 OA
ATOM      9  C   UNL     1      22.220 134.780  10.344  1.00  0.00     0.093 C 
ENDBRANCH   1   7
BRANCH   6  10
ATOM     10  C   UNL     1      23.328 137.284  12.750  1.00  0.00     0.084 A 
ATOM     11  N   UNL     1      22.480 138.217  13.255  1.00  0.00    -0.236 NA
ATOM     12  C   UNL     1      24.174 137.629  11.688  1.00  0.00     0.045 A 
ATOM     13  C   UNL     1      22.479 139.440  12.691  1.00  0.00     0.224 A 
ATOM     14  C   UNL     1      25.184 137.000  10.904  1.00  0.00     0.032 A 
ATOM     15  C   UNL     1      24.056 138.927  11.216  1.00  0.00     0.141 A 
ATOM     16  N   UNL     1      23.229 139.881  11.667  1.00  0.00    -0.219 NA
ATOM     17  C   UNL     1      25.637 137.925   9.986  1.00  0.00     0.085 A 
ATOM     18  N   UNL     1      24.943 139.091  10.188  1.00  0.00    -0.346 N 
ATOM     19  H   UNL     1      25.052 139.951   9.669  1.00  0.00     0.167 HD
ENDBRANCH   6  10
TORSDOF 2
ENDMDL
MODEL 2
REMARK VINA RESULT:      -6.1      1.175      2.429
REMARK SMILES CC(=O)c1ccccc1-c1ncnc2[nH]ccc12
REMARK SMILES IDX 4 1 5 2 6 3 7 4 8 5 9 6 2 7 3 8 1 9 10 10 11 11 18 12 12 13
REMARK SMILES IDX 17 14 14 15 13 16 16 17 15 18
REMARK H PARENT 15 19
ROOT
ATOM      1  C   UNL     1      22.641 134.934  12.690  1.00  0.00     0.027 A 
ATOM      2  C   UNL     1      22.817 133.739  13.406  1.00  0.00     0.012 A 
ATOM      3  C   UNL     1      23.583 133.725  14.570  1.00  0.00     0.001 A 
ATOM      4  C   UNL     1      24.174 134.900  15.021  1.00  0.00     0.001 A 
ATOM      5  C   UNL     1      24.018 136.085  14.295  1.00  0.00     0.011 A 
ATOM      6  C   UNL     1      23.267 136.125  13.104  1.00  0.00     0.012 A 
ENDROOT
BRANCH   1   7
ATOM      7  C   UNL     1      21.760 134.859  11.499  1.00  0.00     0.160 C 
ATOM      8  O   UNL     1      20.542 134.903  11.655  1.00  0.00    -0.294 OA
ATOM      9  C   UNL     1      22.394 134.781  10.136  1.00  0.00     0.093 C 
ENDBRANCH   1   7
BRANCH   6  10
ATOM     10  C   UNL     1      23.201 137.378  12.357  1.00  0.00     0.084 A 
ATOM     11  N   UNL     1      24.287 137.733  11.625  1.00  0.00    -0.236 NA
ATOM     12  C   UNL     1      22.064 138.196  12.339  1.00  0.00     0.045 A 
ATOM     13  C   UNL     1      24.228 138.881  10.923  1.00  0.00     0.224 A 
ATOM     14  C   UNL     1      20.760 138.194  12.914  1.00  0.00     0.032 A 
ATOM     15  C   UNL     1      22.155 139.345  11.569  1.00  0.00     0.141 A 
ATOM     16  N   UNL     1      23.206 139.749  10.840  1.00  0.00    -0.219 NA
ATOM     17  C   UNL     1      20.112 139.333  12.484  1.00  0.00     0.085 A 
ATOM     18  N   UNL     1      20.971 140.022  11.667  1.00  0.00    -0.346 N 
ATOM     19  H   UNL     1      20.782 140.897  11.200  1.00  0.00     0.167 HD
ENDBRANCH   6  10
TORSDOF 2
ENDMDL
MODEL 3
REMARK VINA RESULT:      -6.1      2.599      3.544
REMARK SMILES CC(=O)c1ccccc1-c1ncnc2[nH]ccc12
REMARK SMILES IDX 4 1 5 2 6 3 7 4 8 5 9 6 2 7 3 8 1 9 10 10 11 11 18 12 12 13
REMARK SMILES IDX 17 14 14 15 13 16 16 17 15 18
REMARK H PARENT 15 19
ROOT
ATOM      1  C   UNL     1      22.385 135.166  14.840  1.00  0.00     0.027 A 
ATOM      2  C   UNL     1      21.877 135.339  16.138  1.00  0.00     0.012 A 
ATOM      3  C   UNL     1      20.670 136.007  16.335  1.00  0.00     0.001 A 
ATOM      4  C   UNL     1      19.970 136.504  15.241  1.00  0.00     0.001 A 
ATOM      5  C   UNL     1      20.487 136.351  13.951  1.00  0.00     0.011 A 
ATOM      6  C   UNL     1      21.715 135.699  13.723  1.00  0.00     0.012 A 
ENDROOT
BRANCH   1   7
ATOM      7  C   UNL     1      23.644 134.389  14.730  1.00  0.00     0.160 C 
ATOM      8  O   UNL     1      24.718 134.978  14.827  1.00  0.00    -0.294 OA
ATOM      9  C   UNL     1      23.558 132.897  14.552  1.00  0.00     0.093 C 
ENDBRANCH   1   7
BRANCH   6  10
ATOM     10  C   UNL     1      22.234 135.635  12.360  1.00  0.00     0.084 A 
ATOM     11  N   UNL     1      21.661 134.748  11.507  1.00  0.00    -0.236 NA
ATOM     12  C   UNL     1      23.263 136.467  11.897  1.00  0.00     0.045 A 
ATOM     13  C   UNL     1      22.127 134.694  10.244  1.00  0.00     0.224 A 
ATOM     14  C   UNL     1      24.090 137.503  12.418  1.00  0.00     0.032 A 
ATOM     15  C   UNL     1      23.633 136.293  10.572  1.00  0.00     0.141 A 
ATOM     16  N   UNL     1      23.111 135.425   9.693  1.00  0.00    -0.219 NA
ATOM     17  C   UNL     1      24.931 137.915  11.406  1.00  0.00     0.085 A 
ATOM     18  N   UNL     1      24.642 137.172  10.290  1.00  0.00    -0.346 N 
ATOM     19  H   UNL     1      25.091 137.243   9.389  1.00  0.00     0.167 HD
ENDBRANCH   6  10
TORSDOF 2
ENDMDL
MODEL 4
REMARK VINA RESULT:      -6.0      2.345      4.845
REMARK SMILES CC(=O)c1ccccc1-c1ncnc2[nH]ccc12
REMARK SMILES IDX 4 1 5 2 6 3 7 4 8 5 9 6 2 7 3 8 1 9 10 10 11 11 18 12 12 13
REMARK SMILES IDX 17 14 14 15 13 16 16 17 15 18
REMARK H PARENT 15 19
ROOT
ATOM      1  C   UNL     1      23.439 136.680  10.840  1.00  0.00     0.027 A 
ATOM      2  C   UNL     1      23.851 136.473   9.513  1.00  0.00     0.012 A 
ATOM      3  C   UNL     1      23.301 135.437   8.761  1.00  0.00     0.001 A 
ATOM      4  C   UNL     1      22.342 134.606   9.330  1.00  0.00     0.001 A 
ATOM      5  C   UNL     1      21.949 134.797  10.657  1.00  0.00     0.011 A 
ATOM      6  C   UNL     1      22.502 135.823  11.449  1.00  0.00     0.012 A 
ENDROOT
BRANCH   1   7
ATOM      7  C   UNL     1      24.037 137.844  11.536  1.00  0.00     0.160 C 
ATOM      8  O   UNL     1      25.133 137.716  12.077  1.00  0.00    -0.294 OA
ATOM      9  C   UNL     1      23.301 139.157  11.510  1.00  0.00     0.093 C 
ENDBRANCH   1   7
BRANCH   6  10
ATOM     10  C   UNL     1      22.101 135.925  12.849  1.00  0.00     0.084 A 
ATOM     11  N   UNL     1      21.109 136.797  13.159  1.00  0.00    -0.236 NA
ATOM     12  C   UNL     1      22.670 135.143  13.863  1.00  0.00     0.045 A 
ATOM     13  C   UNL     1      20.725 136.886  14.447  1.00  0.00     0.224 A 
ATOM     14  C   UNL     1      23.671 134.136  13.975  1.00  0.00     0.032 A 
ATOM     15  C   UNL     1      22.169 135.348  15.139  1.00  0.00     0.141 A 
ATOM     16  N   UNL     1      21.203 136.204  15.502  1.00  0.00    -0.219 NA
ATOM     17  C   UNL     1      23.750 133.771  15.303  1.00  0.00     0.085 A 
ATOM     18  N   UNL     1      22.832 134.515  15.998  1.00  0.00    -0.346 N 
ATOM     19  H   UNL     1      22.654 134.473  16.991  1.00  0.00     0.167 HD
ENDBRANCH   6  10
TORSDOF 2
ENDMDL
MODEL 5
REMARK VINA RESULT:      -5.9     27.245     28.797
REMARK SMILES CC(=O)c1ccccc1-c1ncnc2[nH]ccc12
REMARK SMILES IDX 4 1 5 2 6 3 7 4 8 5 9 6 2 7 3 8 1 9 10 10 11 11 18 12 12 13
REMARK SMILES IDX 17 14 14 15 13 16 16 17 15 18
REMARK H PARENT 15 19
ROOT
ATOM      1  C   UNL     1      10.492 121.422 -10.624  1.00  0.00     0.027 A 
ATOM      2  C   UNL     1      10.468 120.022 -10.737  1.00  0.00     0.012 A 
ATOM      3  C   UNL     1      10.953 119.226  -9.702  1.00  0.00     0.001 A 
ATOM      4  C   UNL     1      11.463 119.823  -8.553  1.00  0.00     0.001 A 
ATOM      5  C   UNL     1      11.508 121.216  -8.450  1.00  0.00     0.011 A 
ATOM      6  C   UNL     1      11.044 122.047  -9.489  1.00  0.00     0.012 A 
ENDROOT
BRANCH   1   7
ATOM      7  C   UNL     1       9.898 122.179 -11.752  1.00  0.00     0.160 C 
ATOM      8  O   UNL     1       8.717 122.512 -11.690  1.00  0.00    -0.294 OA
ATOM      9  C   UNL     1      10.781 122.557 -12.911  1.00  0.00     0.093 C 
ENDBRANCH   1   7
BRANCH   6  10
ATOM     10  C   UNL     1      11.185 123.493  -9.349  1.00  0.00     0.084 A 
ATOM     11  N   UNL     1      10.197 124.164  -8.704  1.00  0.00    -0.236 NA
ATOM     12  C   UNL     1      12.301 124.199  -9.817  1.00  0.00     0.045 A 
ATOM     13  C   UNL     1      10.327 125.497  -8.559  1.00  0.00     0.224 A 
ATOM     14  C   UNL     1      13.519 123.907 -10.496  1.00  0.00     0.032 A 
ATOM     15  C   UNL     1      12.290 125.568  -9.593  1.00  0.00     0.141 A 
ATOM     16  N   UNL     1      11.336 126.280  -8.976  1.00  0.00    -0.219 NA
ATOM     17  C   UNL     1      14.198 125.096 -10.667  1.00  0.00     0.085 A 
ATOM     18  N   UNL     1      13.440 126.096 -10.113  1.00  0.00    -0.346 N 
ATOM     19  H   UNL     1      13.673 127.078 -10.082  1.00  0.00     0.167 HD
ENDBRANCH   6  10
TORSDOF 2
ENDMDL
MODEL 6
REMARK VINA RESULT:      -5.9      9.715     11.233
REMARK SMILES CC(=O)c1ccccc1-c1ncnc2[nH]ccc12
REMARK SMILES IDX 4 1 5 2 6 3 7 4 8 5 9 6 2 7 3 8 1 9 10 10 11 11 18 12 12 13
REMARK SMILES IDX 17 14 14 15 13 16 16 17 15 18
REMARK H PARENT 15 19
ROOT
ATOM      1  C   UNL     1      30.983 130.393   6.955  1.00  0.00     0.027 A 
ATOM      2  C   UNL     1      32.278 129.886   7.154  1.00  0.00     0.012 A 
ATOM      3  C   UNL     1      32.855 129.044   6.204  1.00  0.00     0.001 A 
ATOM      4  C   UNL     1      32.143 128.707   5.058  1.00  0.00     0.001 A 
ATOM      5  C   UNL     1      30.847 129.193   4.872  1.00  0.00     0.011 A 
ATOM      6  C   UNL     1      30.229 130.028   5.823  1.00  0.00     0.012 A 
ENDROOT
BRANCH   1   7
ATOM      7  C   UNL     1      30.482 131.327   7.991  1.00  0.00     0.160 C 
ATOM      8  O   UNL     1      29.950 130.869   9.000  1.00  0.00    -0.294 OA
ATOM      9  C   UNL     1      30.688 132.804   7.792  1.00  0.00     0.093 C 
ENDBRANCH   1   7
BRANCH   6  10
ATOM     10  C   UNL     1      28.847 130.444   5.603  1.00  0.00     0.084 A 
ATOM     11  N   UNL     1      27.877 129.808   6.307  1.00  0.00    -0.236 NA
ATOM     12  C   UNL     1      28.494 131.482   4.730  1.00  0.00     0.045 A 
ATOM     13  C   UNL     1      26.601 130.196   6.117  1.00  0.00     0.224 A 
ATOM     14  C   UNL     1      29.157 132.389   3.854  1.00  0.00     0.032 A 
ATOM     15  C   UNL     1      27.139 131.766   4.643  1.00  0.00     0.141 A 
ATOM     16  N   UNL     1      26.141 131.161   5.304  1.00  0.00    -0.219 NA
ATOM     17  C   UNL     1      28.194 133.181   3.265  1.00  0.00     0.085 A 
ATOM     18  N   UNL     1      26.973 132.792   3.754  1.00  0.00    -0.346 N 
ATOM     19  H   UNL     1      26.076 133.185   3.510  1.00  0.00     0.167 HD
ENDBRANCH   6  10
TORSDOF 2
ENDMDL
MODEL 7
REMARK VINA RESULT:      -5.8      6.391      7.856
REMARK SMILES CC(=O)c1ccccc1-c1ncnc2[nH]ccc12
REMARK SMILES IDX 4 1 5 2 6 3 7 4 8 5 9 6 2 7 3 8 1 9 10 10 11 11 18 12 12 13
REMARK SMILES IDX 17 14 14 15 13 16 16 17 15 18
REMARK H PARENT 15 19
ROOT
ATOM      1  C   UNL     1      28.055 131.435   7.270  1.00  0.00     0.027 A 
ATOM      2  C   UNL     1      28.906 130.481   7.852  1.00  0.00     0.012 A 
ATOM      3  C   UNL     1      29.965 130.886   8.661  1.00  0.00     0.001 A 
ATOM      4  C   UNL     1      30.179 132.241   8.890  1.00  0.00     0.001 A 
ATOM      5  C   UNL     1      29.347 133.192   8.292  1.00  0.00     0.011 A 
ATOM      6  C   UNL     1      28.280 132.813   7.453  1.00  0.00     0.012 A 
ENDROOT
BRANCH   1   7
ATOM      7  C   UNL     1      26.922 130.903   6.476  1.00  0.00     0.160 C 
ATOM      8  O   UNL     1      25.824 130.779   7.013  1.00  0.00    -0.294 OA
ATOM      9  C   UNL     1      27.148 130.578   5.024  1.00  0.00     0.093 C 
ENDBRANCH   1   7
BRANCH   6  10
ATOM     10  C   UNL     1      27.492 133.856   6.803  1.00  0.00     0.084 A 
ATOM     11  N   UNL     1      27.818 134.191   5.529  1.00  0.00    -0.236 NA
ATOM     12  C   UNL     1      26.408 134.490   7.424  1.00  0.00     0.045 A 
ATOM     13  C   UNL     1      27.087 135.144   4.919  1.00  0.00     0.224 A 
ATOM     14  C   UNL     1      25.738 134.434   8.680  1.00  0.00     0.032 A 
ATOM     15  C   UNL     1      25.752 135.449   6.667  1.00  0.00     0.141 A 
ATOM     16  N   UNL     1      26.041 135.827   5.413  1.00  0.00    -0.219 NA
ATOM     17  C   UNL     1      24.712 135.356   8.648  1.00  0.00     0.085 A 
ATOM     18  N   UNL     1      24.733 135.965   7.419  1.00  0.00    -0.346 N 
ATOM     19  H   UNL     1      24.104 136.686   7.097  1.00  0.00     0.167 HD
ENDBRANCH   6  10
TORSDOF 2
ENDMDL
MODEL 8
REMARK VINA RESULT:      -5.6      8.032     10.402
REMARK SMILES CC(=O)c1ccccc1-c1ncnc2[nH]ccc12
REMARK SMILES IDX 4 1 5 2 6 3 7 4 8 5 9 6 2 7 3 8 1 9 10 10 11 11 18 12 12 13
REMARK SMILES IDX 17 14 14 15 13 16 16 17 15 18
REMARK H PARENT 15 19
ROOT
ATOM      1  C   UNL     1      25.322 136.154   2.300  1.00  0.00     0.027 A 
ATOM      2  C   UNL     1      25.128 136.684   1.014  1.00  0.00     0.012 A 
ATOM      3  C   UNL     1      26.179 136.708   0.099  1.00  0.00     0.001 A 
ATOM      4  C   UNL     1      27.423 136.206   0.464  1.00  0.00     0.001 A 
ATOM      5  C   UNL     1      27.623 135.699   1.752  1.00  0.00     0.011 A 
ATOM      6  C   UNL     1      26.585 135.681   2.705  1.00  0.00     0.012 A 
ENDROOT
BRANCH   1   7
ATOM      7  C   UNL     1      24.129 136.117   3.178  1.00  0.00     0.160 C 
ATOM      8  O   UNL     1      23.593 135.036   3.412  1.00  0.00    -0.294 OA
ATOM      9  C   UNL     1      23.646 137.403   3.794  1.00  0.00     0.093 C 
ENDBRANCH   1   7
BRANCH   6  10
ATOM     10  C   UNL     1      26.878 135.205   4.054  1.00  0.00     0.084 A 
ATOM     11  N   UNL     1      27.348 136.106   4.953  1.00  0.00    -0.236 NA
ATOM     12  C   UNL     1      26.662 133.880   4.457  1.00  0.00     0.045 A 
ATOM     13  C   UNL     1      27.608 135.676   6.202  1.00  0.00     0.224 A 
ATOM     14  C   UNL     1      26.183 132.671   3.877  1.00  0.00     0.032 A 
ATOM     15  C   UNL     1      26.976 133.590   5.776  1.00  0.00     0.141 A 
ATOM     16  N   UNL     1      27.456 134.437   6.700  1.00  0.00    -0.219 NA
ATOM     17  C   UNL     1      26.229 131.694   4.850  1.00  0.00     0.085 A 
ATOM     18  N   UNL     1      26.712 132.267   5.998  1.00  0.00    -0.346 N 
ATOM     19  H   UNL     1      26.860 131.804   6.883  1.00  0.00     0.167 HD
ENDBRANCH   6  10
TORSDOF 2
ENDMDL
MODEL 9
REMARK VINA RESULT:      -5.6     28.528     30.897
REMARK SMILES CC(=O)c1ccccc1-c1ncnc2[nH]ccc12
REMARK SMILES IDX 4 1 5 2 6 3 7 4 8 5 9 6 2 7 3 8 1 9 10 10 11 11 18 12 12 13
REMARK SMILES IDX 17 14 14 15 13 16 16 17 15 18
REMARK H PARENT 15 19
ROOT
ATOM      1  C   UNL     1      11.369 122.336  -9.464  1.00  0.00     0.027 A 
ATOM      2  C   UNL     1      12.119 123.307  -8.779  1.00  0.00     0.012 A 
ATOM      3  C   UNL     1      12.559 124.450  -9.444  1.00  0.00     0.001 A 
ATOM      4  C   UNL     1      12.254 124.626 -10.789  1.00  0.00     0.001 A 
ATOM      5  C   UNL     1      11.528 123.649 -11.476  1.00  0.00     0.011 A 
ATOM      6  C   UNL     1      11.087 122.473 -10.836  1.00  0.00     0.012 A 
ENDROOT
BRANCH   1   7
ATOM      7  C   UNL     1      10.896 121.187  -8.655  1.00  0.00     0.160 C 
ATOM      8  O   UNL     1       9.876 121.312  -7.981  1.00  0.00    -0.294 OA
ATOM      9  C   UNL     1      11.656 119.890  -8.729  1.00  0.00     0.093 C 
ENDBRANCH   1   7
BRANCH   6  10
ATOM     10  C   UNL     1      10.395 121.460 -11.627  1.00  0.00     0.084 A 
ATOM     11  N   UNL     1       9.038 121.481 -11.632  1.00  0.00    -0.236 NA
ATOM     12  C   UNL     1      11.070 120.502 -12.396  1.00  0.00     0.045 A 
ATOM     13  C   UNL     1       8.394 120.557 -12.370  1.00  0.00     0.224 A 
ATOM     14  C   UNL     1      12.419 120.148 -12.685  1.00  0.00     0.032 A 
ATOM     15  C   UNL     1      10.268 119.618 -13.102  1.00  0.00     0.141 A 
ATOM     16  N   UNL     1       8.927 119.587 -13.131  1.00  0.00    -0.219 NA
ATOM     17  C   UNL     1      12.393 119.068 -13.543  1.00  0.00     0.085 A 
ATOM     18  N   UNL     1      11.080 118.757 -13.787  1.00  0.00    -0.346 N 
ATOM     19  H   UNL     1      10.740 118.012 -14.378  1.00  0.00     0.167 HD
ENDBRANCH   6  10
TORSDOF 2
ENDMDL
