MODEL 1
REMARK VINA RESULT:      -6.4      0.000      0.000
REMARK SMILES CC(=O)n1nc(N)c2ccc(Br)cc21
REMARK SMILES IDX 4 1 5 2 6 3 8 4 9 5 10 6 11 7 12 8 13 9 14 10 2 11 3 12 1 13
REMARK SMILES IDX 7 14
REMARK H PARENT 7 15 7 16
ROOT
ATOM      1  N   UNL     1      16.869 132.035  -4.725  1.00  0.00    -0.198 N 
ATOM      2  N   UNL     1      18.125 132.557  -4.830  1.00  0.00    -0.147 NA
ATOM      3  C   UNL     1      18.254 133.340  -3.769  1.00  0.00     0.153 A 
ATOM      4  C   UNL     1      17.107 133.337  -2.944  1.00  0.00     0.044 A 
ATOM      5  C   UNL     1      16.723 133.964  -1.740  1.00  0.00     0.015 A 
ATOM      6  C   UNL     1      15.456 133.705  -1.207  1.00  0.00     0.016 A 
ATOM      7  C   UNL     1      14.583 132.838  -1.858  1.00  0.00     0.020 A 
ATOM      8  Br  UNL     1      12.875 132.508  -1.110  1.00  0.00    -0.051 Br
ATOM      9  C   UNL     1      14.937 132.206  -3.054  1.00  0.00     0.045 A 
ATOM     10  C   UNL     1      16.214 132.477  -3.580  1.00  0.00     0.081 A 
ENDROOT
BRANCH   1  11
ATOM     11  C   UNL     1      16.392 131.156  -5.716  1.00  0.00     0.244 C 
ATOM     12  O   UNL     1      16.424 129.942  -5.540  1.00  0.00    -0.273 OA
ATOM     13  C   UNL     1      15.868 131.822  -6.954  1.00  0.00     0.117 C 
ENDBRANCH   1  11
BRANCH   3  14
ATOM     14  N   UNL     1      19.369 134.042  -3.520  1.00  0.00    -0.382 N 
ATOM     15  H   UNL     1      19.314 135.030  -3.306  1.00  0.00     0.158 HD
ATOM     16  H   UNL     1      20.101 133.561  -3.007  1.00  0.00     0.158 HD
ENDBRANCH   3  14
TORSDOF 2
ENDMDL
MODEL 2
REMARK VINA RESULT:      -5.3     14.059     15.241
REMARK SMILES CC(=O)n1nc(N)c2ccc(Br)cc21
REMARK SMILES IDX 4 1 5 2 6 3 8 4 9 5 10 6 11 7 12 8 13 9 14 10 2 11 3 12 1 13
REMARK SMILES IDX 7 14
REMARK H PARENT 7 15 7 16
ROOT
ATOM      1  N   UNL     1      11.537 119.400 -11.646  1.00  0.00    -0.198 N 
ATOM      2  N   UNL     1      11.854 118.178 -11.132  1.00  0.00    -0.147 NA
ATOM      3  C   UNL     1      11.899 118.365  -9.821  1.00  0.00     0.153 A 
ATOM      4  C   UNL     1      11.599 119.695  -9.448  1.00  0.00     0.044 A 
ATOM      5  C   UNL     1      11.506 120.412  -8.237  1.00  0.00     0.015 A 
ATOM      6  C   UNL     1      11.172 121.770  -8.268  1.00  0.00     0.016 A 
ATOM      7  C   UNL     1      10.934 122.407  -9.483  1.00  0.00     0.020 A 
ATOM      8  Br  UNL     1      10.483 124.246  -9.492  1.00  0.00    -0.051 Br
ATOM      9  C   UNL     1      11.023 121.721 -10.698  1.00  0.00     0.045 A 
ATOM     10  C   UNL     1      11.361 120.356 -10.652  1.00  0.00     0.081 A 
ENDROOT
BRANCH   1  11
ATOM     11  C   UNL     1      11.421 119.562 -13.041  1.00  0.00     0.244 C 
ATOM     12  O   UNL     1      10.530 118.995 -13.663  1.00  0.00    -0.273 OA
ATOM     13  C   UNL     1      12.454 120.457 -13.661  1.00  0.00     0.117 C 
ENDBRANCH   1  11
BRANCH   3  14
ATOM     14  N   UNL     1      12.189 117.381  -8.958  1.00  0.00    -0.382 N 
ATOM     15  H   UNL     1      13.110 117.320  -8.542  1.00  0.00     0.158 HD
ATOM     16  H   UNL     1      11.445 117.098  -8.328  1.00  0.00     0.158 HD
ENDBRANCH   3  14
TORSDOF 2
ENDMDL
MODEL 3
REMARK VINA RESULT:      -5.3     16.142     17.647
REMARK SMILES CC(=O)n1nc(N)c2ccc(Br)cc21
REMARK SMILES IDX 4 1 5 2 6 3 8 4 9 5 10 6 11 7 12 8 13 9 14 10 2 11 3 12 1 13
REMARK SMILES IDX 7 14
REMARK H PARENT 7 15 7 16
ROOT
ATOM      1  N   UNL     1      24.442 137.384  10.264  1.00  0.00    -0.198 N 
ATOM      2  N   UNL     1      24.248 138.731  10.181  1.00  0.00    -0.147 NA
ATOM      3  C   UNL     1      23.722 139.068  11.350  1.00  0.00     0.153 A 
ATOM      4  C   UNL     1      23.576 137.965  12.222  1.00  0.00     0.044 A 
ATOM      5  C   UNL     1      23.092 137.767  13.532  1.00  0.00     0.015 A 
ATOM      6  C   UNL     1      23.109 136.480  14.081  1.00  0.00     0.016 A 
ATOM      7  C   UNL     1      23.597 135.407  13.341  1.00  0.00     0.020 A 
ATOM      8  Br  UNL     1      23.606 133.678  14.112  1.00  0.00    -0.051 Br
ATOM      9  C   UNL     1      24.079 135.575  12.039  1.00  0.00     0.045 A 
ATOM     10  C   UNL     1      24.056 136.875  11.499  1.00  0.00     0.081 A 
ENDROOT
BRANCH   1  11
ATOM     11  C   UNL     1      24.984 136.687   9.167  1.00  0.00     0.244 C 
ATOM     12  O   UNL     1      26.196 136.522   9.069  1.00  0.00    -0.273 OA
ATOM     13  C   UNL     1      23.976 136.190   8.172  1.00  0.00     0.117 C 
ENDBRANCH   1  11
BRANCH   3  14
ATOM     14  N   UNL     1      23.382 140.329  11.654  1.00  0.00    -0.382 N 
ATOM     15  H   UNL     1      23.433 141.056  10.951  1.00  0.00     0.158 HD
ATOM     16  H   UNL     1      22.604 140.445  12.295  1.00  0.00     0.158 HD
ENDBRANCH   3  14
TORSDOF 2
ENDMDL
MODEL 4
REMARK VINA RESULT:      -5.1     16.471     17.156
REMARK SMILES CC(=O)n1nc(N)c2ccc(Br)cc21
REMARK SMILES IDX 4 1 5 2 6 3 8 4 9 5 10 6 11 7 12 8 13 9 14 10 2 11 3 12 1 13
REMARK SMILES IDX 7 14
REMARK H PARENT 7 15 7 16
ROOT
ATOM      1  N   UNL     1      22.694 136.624  11.391  1.00  0.00    -0.198 N 
ATOM      2  N   UNL     1      22.460 137.896  11.823  1.00  0.00    -0.147 NA
ATOM      3  C   UNL     1      23.461 138.609  11.329  1.00  0.00     0.153 A 
ATOM      4  C   UNL     1      24.356 137.834  10.556  1.00  0.00     0.044 A 
ATOM      5  C   UNL     1      25.540 138.077   9.830  1.00  0.00     0.015 A 
ATOM      6  C   UNL     1      26.167 137.016   9.168  1.00  0.00     0.016 A 
ATOM      7  C   UNL     1      25.628 135.734   9.226  1.00  0.00     0.020 A 
ATOM      8  Br  UNL     1      26.501 134.320   8.318  1.00  0.00    -0.051 Br
ATOM      9  C   UNL     1      24.458 135.465   9.942  1.00  0.00     0.045 A 
ATOM     10  C   UNL     1      23.837 136.541  10.604  1.00  0.00     0.081 A 
ENDROOT
BRANCH   1  11
ATOM     11  C   UNL     1      21.812 135.588  11.756  1.00  0.00     0.244 C 
ATOM     12  O   UNL     1      20.721 135.476  11.208  1.00  0.00    -0.273 OA
ATOM     13  C   UNL     1      22.317 134.677  12.836  1.00  0.00     0.117 C 
ENDBRANCH   1  11
BRANCH   3  14
ATOM     14  N   UNL     1      23.585 139.927  11.542  1.00  0.00    -0.382 N 
ATOM     15  H   UNL     1      22.861 140.436  12.034  1.00  0.00     0.158 HD
ATOM     16  H   UNL     1      24.521 140.266  11.743  1.00  0.00     0.158 HD
ENDBRANCH   3  14
TORSDOF 2
ENDMDL
MODEL 5
REMARK VINA RESULT:      -5.1     15.942     17.172
REMARK SMILES CC(=O)n1nc(N)c2ccc(Br)cc21
REMARK SMILES IDX 4 1 5 2 6 3 8 4 9 5 10 6 11 7 12 8 13 9 14 10 2 11 3 12 1 13
REMARK SMILES IDX 7 14
REMARK H PARENT 7 15 7 16
ROOT
ATOM      1  N   UNL     1      28.115 131.740   7.160  1.00  0.00    -0.198 N 
ATOM      2  N   UNL     1      28.347 132.561   8.224  1.00  0.00    -0.147 NA
ATOM      3  C   UNL     1      29.613 132.344   8.548  1.00  0.00     0.153 A 
ATOM      4  C   UNL     1      30.239 131.399   7.704  1.00  0.00     0.044 A 
ATOM      5  C   UNL     1      31.522 130.822   7.605  1.00  0.00     0.015 A 
ATOM      6  C   UNL     1      31.776 129.885   6.597  1.00  0.00     0.016 A 
ATOM      7  C   UNL     1      30.772 129.524   5.704  1.00  0.00     0.020 A 
ATOM      8  Br  UNL     1      31.147 128.253   4.351  1.00  0.00    -0.051 Br
ATOM      9  C   UNL     1      29.490 130.077   5.782  1.00  0.00     0.045 A 
ATOM     10  C   UNL     1      29.249 131.019   6.801  1.00  0.00     0.081 A 
ENDROOT
BRANCH   1  11
ATOM     11  C   UNL     1      26.839 131.710   6.566  1.00  0.00     0.244 C 
ATOM     12  O   UNL     1      26.021 130.854   6.888  1.00  0.00    -0.273 OA
ATOM     13  C   UNL     1      26.592 132.778   5.543  1.00  0.00     0.117 C 
ENDBRANCH   1  11
BRANCH   3  14
ATOM     14  N   UNL     1      30.218 132.973   9.566  1.00  0.00    -0.382 N 
ATOM     15  H   UNL     1      30.814 133.772   9.391  1.00  0.00     0.158 HD
ATOM     16  H   UNL     1      29.690 133.048  10.430  1.00  0.00     0.158 HD
ENDBRANCH   3  14
TORSDOF 2
ENDMDL
MODEL 6
REMARK VINA RESULT:      -5.0      8.736     10.254
REMARK SMILES CC(=O)n1nc(N)c2ccc(Br)cc21
REMARK SMILES IDX 4 1 5 2 6 3 8 4 9 5 10 6 11 7 12 8 13 9 14 10 2 11 3 12 1 13
REMARK SMILES IDX 7 14
REMARK H PARENT 7 15 7 16
ROOT
ATOM      1  N   UNL     1       8.305 129.783 -10.179  1.00  0.00    -0.198 N 
ATOM      2  N   UNL     1       8.054 131.047  -9.734  1.00  0.00    -0.147 NA
ATOM      3  C   UNL     1       8.906 131.228  -8.736  1.00  0.00     0.153 A 
ATOM      4  C   UNL     1       9.739 130.107  -8.518  1.00  0.00     0.044 A 
ATOM      5  C   UNL     1      10.778 129.776  -7.624  1.00  0.00     0.015 A 
ATOM      6  C   UNL     1      11.387 128.520  -7.717  1.00  0.00     0.016 A 
ATOM      7  C   UNL     1      10.970 127.606  -8.681  1.00  0.00     0.020 A 
ATOM      8  Br  UNL     1      11.815 125.914  -8.781  1.00  0.00    -0.051 Br
ATOM      9  C   UNL     1       9.940 127.908  -9.576  1.00  0.00     0.045 A 
ATOM     10  C   UNL     1       9.336 129.175  -9.471  1.00  0.00     0.081 A 
ENDROOT
BRANCH   1  11
ATOM     11  C   UNL     1       7.550 129.254 -11.245  1.00  0.00     0.244 C 
ATOM     12  O   UNL     1       7.853 129.502 -12.407  1.00  0.00    -0.273 OA
ATOM     13  C   UNL     1       6.389 128.397 -10.834  1.00  0.00     0.117 C 
ENDBRANCH   1  11
BRANCH   3  14
ATOM     14  N   UNL     1       8.963 132.367  -8.031  1.00  0.00    -0.382 N 
ATOM     15  H   UNL     1       8.453 132.456  -7.161  1.00  0.00     0.158 HD
ATOM     16  H   UNL     1       9.856 132.850  -8.022  1.00  0.00     0.158 HD
ENDBRANCH   3  14
TORSDOF 2
ENDMDL
MODEL 7
REMARK VINA RESULT:      -4.9      3.082      4.268
REMARK SMILES CC(=O)n1nc(N)c2ccc(Br)cc21
REMARK SMILES IDX 4 1 5 2 6 3 8 4 9 5 10 6 11 7 12 8 13 9 14 10 2 11 3 12 1 13
REMARK SMILES IDX 7 14
REMARK H PARENT 7 15 7 16
ROOT
ATOM      1  N   UNL     1      18.379 132.074  -7.272  1.00  0.00    -0.198 N 
ATOM      2  N   UNL     1      17.598 131.207  -7.977  1.00  0.00    -0.147 NA
ATOM      3  C   UNL     1      16.646 130.844  -7.130  1.00  0.00     0.153 A 
ATOM      4  C   UNL     1      16.769 131.471  -5.869  1.00  0.00     0.044 A 
ATOM      5  C   UNL     1      16.056 131.447  -4.653  1.00  0.00     0.015 A 
ATOM      6  C   UNL     1      16.498 132.235  -3.584  1.00  0.00     0.016 A 
ATOM      7  C   UNL     1      17.631 133.032  -3.720  1.00  0.00     0.020 A 
ATOM      8  Br  UNL     1      18.203 134.087  -2.256  1.00  0.00    -0.051 Br
ATOM      9  C   UNL     1      18.358 133.072  -4.914  1.00  0.00     0.045 A 
ATOM     10  C   UNL     1      17.902 132.274  -5.981  1.00  0.00     0.081 A 
ENDROOT
BRANCH   1  11
ATOM     11  C   UNL     1      19.512 132.649  -7.880  1.00  0.00     0.244 C 
ATOM     12  O   UNL     1      20.640 132.355  -7.499  1.00  0.00    -0.273 OA
ATOM     13  C   UNL     1      19.214 133.615  -8.988  1.00  0.00     0.117 C 
ENDBRANCH   1  11
BRANCH   3  14
ATOM     14  N   UNL     1      15.674 129.982  -7.460  1.00  0.00    -0.382 N 
ATOM     15  H   UNL     1      15.770 129.390  -8.275  1.00  0.00     0.158 HD
ATOM     16  H   UNL     1      15.191 129.529  -6.690  1.00  0.00     0.158 HD
ENDBRANCH   3  14
TORSDOF 2
ENDMDL
MODEL 8
REMARK VINA RESULT:      -4.8     17.135     17.902
REMARK SMILES CC(=O)n1nc(N)c2ccc(Br)cc21
REMARK SMILES IDX 4 1 5 2 6 3 8 4 9 5 10 6 11 7 12 8 13 9 14 10 2 11 3 12 1 13
REMARK SMILES IDX 7 14
REMARK H PARENT 7 15 7 16
ROOT
ATOM      1  N   UNL     1      22.808 136.464  11.719  1.00  0.00    -0.198 N 
ATOM      2  N   UNL     1      23.675 136.732  10.701  1.00  0.00    -0.147 NA
ATOM      3  C   UNL     1      23.816 138.049  10.717  1.00  0.00     0.153 A 
ATOM      4  C   UNL     1      23.067 138.667  11.744  1.00  0.00     0.044 A 
ATOM      5  C   UNL     1      22.863 139.988  12.195  1.00  0.00     0.015 A 
ATOM      6  C   UNL     1      22.017 140.216  13.286  1.00  0.00     0.016 A 
ATOM      7  C   UNL     1      21.384 139.151  13.919  1.00  0.00     0.020 A 
ATOM      8  Br  UNL     1      20.246 139.493  15.393  1.00  0.00    -0.051 Br
ATOM      9  C   UNL     1      21.566 137.832  13.490  1.00  0.00     0.045 A 
ATOM     10  C   UNL     1      22.419 137.617  12.391  1.00  0.00     0.081 A 
ENDROOT
BRANCH   1  11
ATOM     11  C   UNL     1      22.421 135.134  11.976  1.00  0.00     0.244 C 
ATOM     12  O   UNL     1      21.437 134.653  11.423  1.00  0.00    -0.273 OA
ATOM     13  C   UNL     1      23.292 134.399  12.951  1.00  0.00     0.117 C 
ENDBRANCH   1  11
BRANCH   3  14
ATOM     14  N   UNL     1      24.601 138.703   9.848  1.00  0.00    -0.382 N 
ATOM     15  H   UNL     1      24.519 139.707   9.741  1.00  0.00     0.158 HD
ATOM     16  H   UNL     1      25.554 138.366   9.757  1.00  0.00     0.158 HD
ENDBRANCH   3  14
TORSDOF 2
ENDMDL
MODEL 9
REMARK VINA RESULT:      -4.8     13.485     15.567
REMARK SMILES CC(=O)n1nc(N)c2ccc(Br)cc21
REMARK SMILES IDX 4 1 5 2 6 3 8 4 9 5 10 6 11 7 12 8 13 9 14 10 2 11 3 12 1 13
REMARK SMILES IDX 7 14
REMARK H PARENT 7 15 7 16
ROOT
ATOM      1  N   UNL     1      11.408 120.881  -9.588  1.00  0.00    -0.198 N 
ATOM      2  N   UNL     1      11.692 119.843  -8.750  1.00  0.00    -0.147 NA
ATOM      3  C   UNL     1      12.107 118.870  -9.548  1.00  0.00     0.153 A 
ATOM      4  C   UNL     1      12.120 119.248 -10.910  1.00  0.00     0.044 A 
ATOM      5  C   UNL     1      12.460 118.627 -12.130  1.00  0.00     0.015 A 
ATOM      6  C   UNL     1      12.338 119.348 -13.323  1.00  0.00     0.016 A 
ATOM      7  C   UNL     1      11.886 120.665 -13.304  1.00  0.00     0.020 A 
ATOM      8  Br  UNL     1      11.734 121.615 -14.936  1.00  0.00    -0.051 Br
ATOM      9  C   UNL     1      11.540 121.303 -12.110  1.00  0.00     0.045 A 
ATOM     10  C   UNL     1      11.666 120.565 -10.917  1.00  0.00     0.081 A 
ENDROOT
BRANCH   1  11
ATOM     11  C   UNL     1      10.920 122.092  -9.060  1.00  0.00     0.244 C 
ATOM     12  O   UNL     1       9.746 122.197  -8.722  1.00  0.00    -0.273 OA
ATOM     13  C   UNL     1      11.935 123.193  -8.959  1.00  0.00     0.117 C 
ENDBRANCH   1  11
BRANCH   3  14
ATOM     14  N   UNL     1      12.479 117.667  -9.088  1.00  0.00    -0.382 N 
ATOM     15  H   UNL     1      11.909 117.180  -8.408  1.00  0.00     0.158 HD
ATOM     16  H   UNL     1      12.924 117.045  -9.756  1.00  0.00     0.158 HD
ENDBRANCH   3  14
TORSDOF 2
ENDMDL
