MODEL 1
REMARK minimizedAffinity -10.4092045
REMARK CNNscore 0.935186505
REMARK CNNaffinity 7.44847631
REMARK SMILES CC(=O)CCCC(=O)Nc1cc(Cc2n[nH]c(=O)c3c2CCCC3)ccc1F
REMARK SMILES IDX 7 1 8 2 9 3 6 5 5 6 4 7 2 8 3 9 1 10 10 11 11 12 27 13 12 14
REMARK SMILES IDX 26 15 25 16 28 17 13 18 14 19 15 20 20 21 16 22 19 23 21 24
REMARK SMILES IDX 17 25 24 26 22 27 18 28 23 29
REMARK H PARENT 9 4 16 30
ROOT
ATOM      1  C   UNL     1     -41.620   0.559  -7.611  1.00  0.00     0.224 C 
ATOM      2  O   UNL     1     -42.333   1.302  -8.274  1.00  0.00    -0.275 OA
ATOM      3  N   UNL     1     -40.625   0.949  -6.733  1.00  0.00    -0.324 N 
ATOM      4  H   UNL     1     -40.118   0.218  -6.244  1.00  0.00     0.170 HD
ENDROOT
BRANCH   1   5
ATOM      5  C   UNL     1     -41.751  -0.956  -7.663  1.00  0.00     0.101 C 
BRANCH   5   6
ATOM      6  C   UNL     1     -43.070  -1.458  -7.075  1.00  0.00     0.018 C 
BRANCH   6   7
ATOM      7  C   UNL     1     -43.112  -1.254  -5.562  1.00  0.00     0.076 C 
BRANCH   7   8
ATOM      8  C   UNL     1     -44.368  -0.536  -5.099  1.00  0.00     0.129 C 
ATOM      9  O   UNL     1     -45.197  -1.052  -4.352  1.00  0.00    -0.300 OA
ATOM     10  C   UNL     1     -44.547   0.874  -5.599  1.00  0.00     0.087 C 
ENDBRANCH   7   8
ENDBRANCH   6   7
ENDBRANCH   5   6
ENDBRANCH   1   5
BRANCH   3  11
ATOM     11  C   UNL     1     -40.211   2.262  -6.421  1.00  0.00     0.077 A 
ATOM     12  C   UNL     1     -39.712   3.180  -7.348  1.00  0.00     0.033 A 
ATOM     13  C   UNL     1     -40.309   2.654  -5.081  1.00  0.00     0.146 A 
ATOM     14  C   UNL     1     -39.333   4.476  -6.946  1.00  0.00    -0.040 A 
ATOM     15  C   UNL     1     -39.921   3.921  -4.660  1.00  0.00     0.042 A 
ATOM     16  C   UNL     1     -39.428   4.831  -5.592  1.00  0.00     0.007 A 
ATOM     17  F   UNL     1     -40.785   1.787  -4.173  1.00  0.00    -0.205 F 
BRANCH  14  18
ATOM     18  C   UNL     1     -38.776   5.466  -7.946  1.00  0.00     0.094 C 
BRANCH  18  19
ATOM     19  C   UNL     1     -39.837   6.270  -8.693  1.00  0.00     0.069 A 
ATOM     20  N   UNL     1     -40.783   5.587  -9.263  1.00  0.00    -0.177 NA
ATOM     21  C   UNL     1     -39.745   7.764  -8.736  1.00  0.00    -0.016 A 
ATOM     22  N   UNL     1     -41.749   6.282  -9.918  1.00  0.00    -0.243 N 
ATOM     23  C   UNL     1     -40.733   8.410  -9.378  1.00  0.00     0.024 A 
ATOM     24  C   UNL     1     -38.592   8.490  -8.102  1.00  0.00     0.038 C 
ATOM     25  C   UNL     1     -41.829   7.645 -10.025  1.00  0.00     0.267 A 
ATOM     26  C   UNL     1     -40.811   9.908  -9.490  1.00  0.00     0.042 C 
ATOM     27  C   UNL     1     -38.476   9.950  -8.552  1.00  0.00     0.005 C 
ATOM     28  O   UNL     1     -42.739   8.204 -10.628  1.00  0.00    -0.268 OA
ATOM     29  C   UNL     1     -39.839  10.631  -8.555  1.00  0.00     0.005 C 
ATOM     30  H   UNL     1     -42.499   5.739 -10.334  1.00  0.00     0.194 HD
ENDBRANCH  18  19
ENDBRANCH  14  18
ENDBRANCH   3  11
TORSDOF 7
ENDMDL
MODEL 2
REMARK minimizedAffinity -10.2848768
REMARK CNNscore 0.920810938
REMARK CNNaffinity 7.13765287
REMARK SMILES CC(=O)CCCC(=O)Nc1cc(Cc2n[nH]c(=O)c3c2CCCC3)ccc1F
REMARK SMILES IDX 7 1 8 2 9 3 6 5 5 6 4 7 2 8 3 9 1 10 10 11 11 12 27 13 12 14
REMARK SMILES IDX 26 15 25 16 28 17 13 18 14 19 15 20 20 21 16 22 19 23 21 24
REMARK SMILES IDX 17 25 24 26 22 27 18 28 23 29
REMARK H PARENT 9 4 16 30
ROOT
ATOM      1  C   UNL     1     -41.175   0.979  -8.153  1.00  0.00     0.224 C 
ATOM      2  O   UNL     1     -41.498   1.662  -9.116  1.00  0.00    -0.275 OA
ATOM      3  N   UNL     1     -40.044   1.145  -7.374  1.00  0.00    -0.324 N 
ATOM      4  H   UNL     1     -39.910   0.503  -6.598  1.00  0.00     0.170 HD
ENDROOT
BRANCH   1   5
ATOM      5  C   UNL     1     -42.021  -0.186  -7.660  1.00  0.00     0.101 C 
BRANCH   5   6
ATOM      6  C   UNL     1     -43.450   0.225  -7.309  1.00  0.00     0.018 C 
BRANCH   6   7
ATOM      7  C   UNL     1     -44.242  -0.953  -6.747  1.00  0.00     0.076 C 
BRANCH   7   8
ATOM      8  C   UNL     1     -44.725  -0.715  -5.327  1.00  0.00     0.129 C 
ATOM      9  O   UNL     1     -45.909  -0.546  -5.043  1.00  0.00    -0.300 OA
ATOM     10  C   UNL     1     -43.663  -0.707  -4.258  1.00  0.00     0.087 C 
ENDBRANCH   7   8
ENDBRANCH   6   7
ENDBRANCH   5   6
ENDBRANCH   1   5
BRANCH   3  11
ATOM     11  C   UNL     1     -39.025   2.111  -7.521  1.00  0.00     0.077 A 
ATOM     12  C   UNL     1     -39.228   3.492  -7.482  1.00  0.00     0.033 A 
ATOM     13  C   UNL     1     -37.725   1.633  -7.723  1.00  0.00     0.146 A 
ATOM     14  C   UNL     1     -38.146   4.383  -7.627  1.00  0.00    -0.040 A 
ATOM     15  C   UNL     1     -36.647   2.495  -7.888  1.00  0.00     0.042 A 
ATOM     16  C   UNL     1     -36.858   3.871  -7.845  1.00  0.00     0.007 A 
ATOM     17  F   UNL     1     -37.508   0.309  -7.764  1.00  0.00    -0.205 F 
BRANCH  14  18
ATOM     18  C   UNL     1     -38.367   5.880  -7.603  1.00  0.00     0.094 C 
BRANCH  18  19
ATOM     19  C   UNL     1     -39.494   6.365  -8.512  1.00  0.00     0.069 A 
ATOM     20  N   UNL     1     -40.257   5.447  -9.024  1.00  0.00    -0.177 NA
ATOM     21  C   UNL     1     -39.668   7.830  -8.766  1.00  0.00    -0.016 A 
ATOM     22  N   UNL     1     -41.279   5.855  -9.822  1.00  0.00    -0.243 N 
ATOM     23  C   UNL     1     -40.703   8.188  -9.545  1.00  0.00     0.024 A 
ATOM     24  C   UNL     1     -38.714   8.837  -8.186  1.00  0.00     0.038 C 
ATOM     25  C   UNL     1     -41.592   7.152 -10.128  1.00  0.00     0.267 A 
ATOM     26  C   UNL     1     -41.038   9.616  -9.876  1.00  0.00     0.042 C 
ATOM     27  C   UNL     1     -38.827  10.220  -8.837  1.00  0.00     0.005 C 
ATOM     28  O   UNL     1     -42.538   7.445 -10.852  1.00  0.00    -0.268 OA
ATOM     29  C   UNL     1     -40.286  10.627  -9.008  1.00  0.00     0.005 C 
ATOM     30  H   UNL     1     -41.885   5.130 -10.192  1.00  0.00     0.194 HD
ENDBRANCH  18  19
ENDBRANCH  14  18
ENDBRANCH   3  11
TORSDOF 7
ENDMDL
MODEL 3
REMARK minimizedAffinity -10.4064035
REMARK CNNscore 0.871675611
REMARK CNNaffinity 7.3192811
REMARK SMILES CC(=O)CCCC(=O)Nc1cc(Cc2n[nH]c(=O)c3c2CCCC3)ccc1F
REMARK SMILES IDX 7 1 8 2 9 3 6 5 5 6 4 7 2 8 3 9 1 10 10 11 11 12 27 13 12 14
REMARK SMILES IDX 26 15 25 16 28 17 13 18 14 19 15 20 20 21 16 22 19 23 21 24
REMARK SMILES IDX 17 25 24 26 22 27 18 28 23 29
REMARK H PARENT 9 4 16 30
ROOT
ATOM      1  C   UNL     1     -35.674   0.956  -5.951  1.00  0.00     0.224 C 
ATOM      2  O   UNL     1     -36.478   1.023  -5.031  1.00  0.00    -0.275 OA
ATOM      3  N   UNL     1     -35.843   1.468  -7.225  1.00  0.00    -0.324 N 
ATOM      4  H   UNL     1     -35.082   1.342  -7.886  1.00  0.00     0.170 HD
ENDROOT
BRANCH   1   5
ATOM      5  C   UNL     1     -34.319   0.280  -5.801  1.00  0.00     0.101 C 
BRANCH   5   6
ATOM      6  C   UNL     1     -33.443   0.938  -4.735  1.00  0.00     0.018 C 
BRANCH   6   7
ATOM      7  C   UNL     1     -33.321   2.442  -4.972  1.00  0.00     0.076 C 
BRANCH   7   8
ATOM      8  C   UNL     1     -32.253   2.793  -5.993  1.00  0.00     0.129 C 
ATOM      9  O   UNL     1     -31.534   3.786  -5.895  1.00  0.00    -0.300 OA
ATOM     10  C   UNL     1     -32.103   1.839  -7.150  1.00  0.00     0.087 C 
ENDBRANCH   7   8
ENDBRANCH   6   7
ENDBRANCH   5   6
ENDBRANCH   1   5
BRANCH   3  11
ATOM     11  C   UNL     1     -36.962   2.156  -7.740  1.00  0.00     0.077 A 
ATOM     12  C   UNL     1     -37.298   3.475  -7.426  1.00  0.00     0.033 A 
ATOM     13  C   UNL     1     -37.787   1.451  -8.624  1.00  0.00     0.146 A 
ATOM     14  C   UNL     1     -38.431   4.086  -7.999  1.00  0.00    -0.040 A 
ATOM     15  C   UNL     1     -38.921   2.028  -9.185  1.00  0.00     0.042 A 
ATOM     16  C   UNL     1     -39.246   3.345  -8.869  1.00  0.00     0.007 A 
ATOM     17  F   UNL     1     -37.483   0.181  -8.939  1.00  0.00    -0.205 F 
BRANCH  14  18
ATOM     18  C   UNL     1     -38.805   5.510  -7.647  1.00  0.00     0.094 C 
BRANCH  18  19
ATOM     19  C   UNL     1     -39.859   6.129  -8.561  1.00  0.00     0.069 A 
ATOM     20  N   UNL     1     -40.712   5.308  -9.096  1.00  0.00    -0.177 NA
ATOM     21  C   UNL     1     -39.865   7.608  -8.797  1.00  0.00    -0.016 A 
ATOM     22  N   UNL     1     -41.671   5.839  -9.900  1.00  0.00    -0.243 N 
ATOM     23  C   UNL     1     -40.843   8.089  -9.582  1.00  0.00     0.024 A 
ATOM     24  C   UNL     1     -38.813   8.494  -8.191  1.00  0.00     0.038 C 
ATOM     25  C   UNL     1     -41.834   7.166 -10.191  1.00  0.00     0.267 A 
ATOM     26  C   UNL     1     -41.013   9.550  -9.897  1.00  0.00     0.042 C 
ATOM     27  C   UNL     1     -38.762   9.890  -8.822  1.00  0.00     0.005 C 
ATOM     28  O   UNL     1     -42.732   7.573 -10.922  1.00  0.00    -0.268 OA
ATOM     29  C   UNL     1     -40.164  10.458  -9.005  1.00  0.00     0.005 C 
ATOM     30  H   UNL     1     -42.350   5.191 -10.288  1.00  0.00     0.194 HD
ENDBRANCH  18  19
ENDBRANCH  14  18
ENDBRANCH   3  11
TORSDOF 7
ENDMDL
MODEL 4
REMARK minimizedAffinity -10.3373241
REMARK CNNscore 0.849017262
REMARK CNNaffinity 7.29060984
REMARK SMILES CC(=O)CCCC(=O)Nc1cc(Cc2n[nH]c(=O)c3c2CCCC3)ccc1F
REMARK SMILES IDX 7 1 8 2 9 3 6 5 5 6 4 7 2 8 3 9 1 10 10 11 11 12 27 13 12 14
REMARK SMILES IDX 26 15 25 16 28 17 13 18 14 19 15 20 20 21 16 22 19 23 21 24
REMARK SMILES IDX 17 25 24 26 22 27 18 28 23 29
REMARK H PARENT 9 4 16 30
ROOT
ATOM      1  C   UNL     1     -41.470   0.679  -7.679  1.00  0.00     0.224 C 
ATOM      2  O   UNL     1     -42.366   1.403  -8.090  1.00  0.00    -0.275 OA
ATOM      3  N   UNL     1     -40.368   1.077  -6.944  1.00  0.00    -0.324 N 
ATOM      4  H   UNL     1     -39.707   0.359  -6.663  1.00  0.00     0.170 HD
ENDROOT
BRANCH   1   5
ATOM      5  C   UNL     1     -41.458  -0.823  -7.926  1.00  0.00     0.101 C 
BRANCH   5   6
ATOM      6  C   UNL     1     -40.079  -1.347  -8.325  1.00  0.00     0.018 C 
BRANCH   6   7
ATOM      7  C   UNL     1     -39.622  -0.744  -9.652  1.00  0.00     0.076 C 
BRANCH   7   8
ATOM      8  C   UNL     1     -38.370  -1.406 -10.200  1.00  0.00     0.129 C 
ATOM      9  O   UNL     1     -37.627  -0.861 -11.015  1.00  0.00    -0.300 OA
ATOM     10  C   UNL     1     -38.067  -2.787  -9.677  1.00  0.00     0.087 C 
ENDBRANCH   7   8
ENDBRANCH   6   7
ENDBRANCH   5   6
ENDBRANCH   1   5
BRANCH   3  11
ATOM     11  C   UNL     1     -40.033   2.382  -6.523  1.00  0.00     0.077 A 
ATOM     12  C   UNL     1     -39.582   3.398  -7.368  1.00  0.00     0.033 A 
ATOM     13  C   UNL     1     -40.164   2.659  -5.157  1.00  0.00     0.146 A 
ATOM     14  C   UNL     1     -39.282   4.678  -6.859  1.00  0.00    -0.040 A 
ATOM     15  C   UNL     1     -39.854   3.909  -4.631  1.00  0.00     0.042 A 
ATOM     16  C   UNL     1     -39.408   4.917  -5.482  1.00  0.00     0.007 A 
ATOM     17  F   UNL     1     -40.595   1.696  -4.327  1.00  0.00    -0.205 F 
BRANCH  14  18
ATOM     18  C   UNL     1     -38.776   5.775  -7.771  1.00  0.00     0.094 C 
BRANCH  18  19
ATOM     19  C   UNL     1     -39.853   6.414  -8.644  1.00  0.00     0.069 A 
ATOM     20  N   UNL     1     -40.729   5.607  -9.162  1.00  0.00    -0.177 NA
ATOM     21  C   UNL     1     -39.855   7.896  -8.859  1.00  0.00    -0.016 A 
ATOM     22  N   UNL     1     -41.709   6.154  -9.928  1.00  0.00    -0.243 N 
ATOM     23  C   UNL     1     -40.854   8.394  -9.608  1.00  0.00     0.024 A 
ATOM     24  C   UNL     1     -38.779   8.767  -8.276  1.00  0.00     0.038 C 
ATOM     25  C   UNL     1     -41.871   7.487 -10.197  1.00  0.00     0.267 A 
ATOM     26  C   UNL     1     -41.023   9.860  -9.898  1.00  0.00     0.042 C 
ATOM     27  C   UNL     1     -38.737  10.170  -8.891  1.00  0.00     0.005 C 
ATOM     28  O   UNL     1     -42.788   7.909 -10.893  1.00  0.00    -0.268 OA
ATOM     29  C   UNL     1     -40.139  10.751  -9.021  1.00  0.00     0.005 C 
ATOM     30  H   UNL     1     -42.404   5.517 -10.303  1.00  0.00     0.194 HD
ENDBRANCH  18  19
ENDBRANCH  14  18
ENDBRANCH   3  11
TORSDOF 7
ENDMDL
MODEL 5
REMARK minimizedAffinity -9.63822746
REMARK CNNscore 0.81084919
REMARK CNNaffinity 6.88425207
REMARK SMILES CC(=O)CCCC(=O)Nc1cc(Cc2n[nH]c(=O)c3c2CCCC3)ccc1F
REMARK SMILES IDX 7 1 8 2 9 3 6 5 5 6 4 7 2 8 3 9 1 10 10 11 11 12 27 13 12 14
REMARK SMILES IDX 26 15 25 16 28 17 13 18 14 19 15 20 20 21 16 22 19 23 21 24
REMARK SMILES IDX 17 25 24 26 22 27 18 28 23 29
REMARK H PARENT 9 4 16 30
ROOT
ATOM      1  C   UNL     1     -42.906   0.059  -7.656  1.00  0.00     0.224 C 
ATOM      2  O   UNL     1     -43.543   1.008  -8.095  1.00  0.00    -0.275 OA
ATOM      3  N   UNL     1     -41.529  -0.070  -7.654  1.00  0.00    -0.324 N 
ATOM      4  H   UNL     1     -41.138  -0.914  -7.247  1.00  0.00     0.170 HD
ENDROOT
BRANCH   1   5
ATOM      5  C   UNL     1     -43.576  -1.148  -7.019  1.00  0.00     0.101 C 
BRANCH   5   6
ATOM      6  C   UNL     1     -44.064  -0.874  -5.596  1.00  0.00     0.018 C 
BRANCH   6   7
ATOM      7  C   UNL     1     -43.379  -1.797  -4.590  1.00  0.00     0.076 C 
BRANCH   7   8
ATOM      8  C   UNL     1     -42.069  -1.232  -4.070  1.00  0.00     0.129 C 
ATOM      9  O   UNL     1     -41.071  -1.097  -4.776  1.00  0.00    -0.300 OA
ATOM     10  C   UNL     1     -42.052  -0.825  -2.619  1.00  0.00     0.087 C 
ENDBRANCH   7   8
ENDBRANCH   6   7
ENDBRANCH   5   6
ENDBRANCH   1   5
BRANCH   3  11
ATOM     11  C   UNL     1     -40.573   0.839  -8.157  1.00  0.00     0.077 A 
ATOM     12  C   UNL     1     -40.448   2.169  -7.749  1.00  0.00     0.033 A 
ATOM     13  C   UNL     1     -39.697   0.357  -9.137  1.00  0.00     0.146 A 
ATOM     14  C   UNL     1     -39.453   3.001  -8.301  1.00  0.00    -0.040 A 
ATOM     15  C   UNL     1     -38.721   1.167  -9.708  1.00  0.00     0.042 A 
ATOM     16  C   UNL     1     -38.603   2.491  -9.293  1.00  0.00     0.007 A 
ATOM     17  F   UNL     1     -39.800  -0.918  -9.544  1.00  0.00    -0.205 F 
BRANCH  14  18
ATOM     18  C   UNL     1     -39.329   4.447  -7.872  1.00  0.00     0.094 C 
BRANCH  18  19
ATOM     19  C   UNL     1     -40.164   5.423  -8.697  1.00  0.00     0.069 A 
ATOM     20  N   UNL     1     -41.119   4.904  -9.409  1.00  0.00    -0.177 NA
ATOM     21  C   UNL     1     -39.858   6.888  -8.653  1.00  0.00    -0.016 A 
ATOM     22  N   UNL     1     -41.889   5.755 -10.138  1.00  0.00    -0.243 N 
ATOM     23  C   UNL     1     -40.658   7.692  -9.375  1.00  0.00     0.024 A 
ATOM     24  C   UNL     1     -38.702   7.416  -7.852  1.00  0.00     0.038 C 
ATOM     25  C   UNL     1     -41.761   7.117 -10.184  1.00  0.00     0.267 A 
ATOM     26  C   UNL     1     -40.509   9.188  -9.419  1.00  0.00     0.042 C 
ATOM     27  C   UNL     1     -38.326   8.857  -8.210  1.00  0.00     0.005 C 
ATOM     28  O   UNL     1     -42.501   7.823 -10.861  1.00  0.00    -0.268 OA
ATOM     29  C   UNL     1     -39.568   9.730  -8.340  1.00  0.00     0.005 C 
ATOM     30  H   UNL     1     -42.650   5.341 -10.666  1.00  0.00     0.194 HD
ENDBRANCH  18  19
ENDBRANCH  14  18
ENDBRANCH   3  11
TORSDOF 7
ENDMDL
MODEL 6
REMARK minimizedAffinity -9.66344738
REMARK CNNscore 0.760117173
REMARK CNNaffinity 6.98125696
REMARK SMILES CC(=O)CCCC(=O)Nc1cc(Cc2n[nH]c(=O)c3c2CCCC3)ccc1F
REMARK SMILES IDX 7 1 8 2 9 3 6 5 5 6 4 7 2 8 3 9 1 10 10 11 11 12 27 13 12 14
REMARK SMILES IDX 26 15 25 16 28 17 13 18 14 19 15 20 20 21 16 22 19 23 21 24
REMARK SMILES IDX 17 25 24 26 22 27 18 28 23 29
REMARK H PARENT 9 4 16 30
ROOT
ATOM      1  C   UNL     1     -41.019   1.117  -4.848  1.00  0.00     0.224 C 
ATOM      2  O   UNL     1     -40.185   1.310  -3.973  1.00  0.00    -0.275 OA
ATOM      3  N   UNL     1     -40.913   1.489  -6.176  1.00  0.00    -0.324 N 
ATOM      4  H   UNL     1     -41.685   1.254  -6.792  1.00  0.00     0.170 HD
ENDROOT
BRANCH   1   5
ATOM      5  C   UNL     1     -42.333   0.400  -4.577  1.00  0.00     0.101 C 
BRANCH   5   6
ATOM      6  C   UNL     1     -42.199  -1.122  -4.619  1.00  0.00     0.018 C 
BRANCH   6   7
ATOM      7  C   UNL     1     -41.545  -1.583  -5.920  1.00  0.00     0.076 C 
BRANCH   7   8
ATOM      8  C   UNL     1     -42.392  -1.282  -7.144  1.00  0.00     0.129 C 
ATOM      9  O   UNL     1     -41.926  -0.820  -8.183  1.00  0.00    -0.300 OA
ATOM     10  C   UNL     1     -43.862  -1.597  -7.026  1.00  0.00     0.087 C 
ENDBRANCH   7   8
ENDBRANCH   6   7
ENDBRANCH   5   6
ENDBRANCH   1   5
BRANCH   3  11
ATOM     11  C   UNL     1     -39.847   2.170  -6.802  1.00  0.00     0.077 A 
ATOM     12  C   UNL     1     -39.767   3.557  -6.949  1.00  0.00     0.033 A 
ATOM     13  C   UNL     1     -38.806   1.385  -7.311  1.00  0.00     0.146 A 
ATOM     14  C   UNL     1     -38.656   4.152  -7.580  1.00  0.00    -0.040 A 
ATOM     15  C   UNL     1     -37.710   1.951  -7.954  1.00  0.00     0.042 A 
ATOM     16  C   UNL     1     -37.638   3.335  -8.094  1.00  0.00     0.007 A 
ATOM     17  F   UNL     1     -38.863   0.050  -7.181  1.00  0.00    -0.205 F 
BRANCH  14  18
ATOM     18  C   UNL     1     -38.577   5.653  -7.756  1.00  0.00     0.094 C 
BRANCH  18  19
ATOM     19  C   UNL     1     -39.676   6.243  -8.636  1.00  0.00     0.069 A 
ATOM     20  N   UNL     1     -40.488   5.394  -9.191  1.00  0.00    -0.177 NA
ATOM     21  C   UNL     1     -39.768   7.726  -8.818  1.00  0.00    -0.016 A 
ATOM     22  N   UNL     1     -41.486   5.897  -9.964  1.00  0.00    -0.243 N 
ATOM     23  C   UNL     1     -40.783   8.178  -9.575  1.00  0.00     0.024 A 
ATOM     24  C   UNL     1     -38.761   8.650  -8.192  1.00  0.00     0.038 C 
ATOM     25  C   UNL     1     -41.727   7.222 -10.206  1.00  0.00     0.267 A 
ATOM     26  C   UNL     1     -41.039   9.637  -9.836  1.00  0.00     0.042 C 
ATOM     27  C   UNL     1     -38.798  10.067  -8.774  1.00  0.00     0.005 C 
ATOM     28  O   UNL     1     -42.656   7.602 -10.912  1.00  0.00    -0.268 OA
ATOM     29  C   UNL     1     -40.232  10.561  -8.921  1.00  0.00     0.005 C 
ATOM     30  H   UNL     1     -42.132   5.226 -10.368  1.00  0.00     0.194 HD
ENDBRANCH  18  19
ENDBRANCH  14  18
ENDBRANCH   3  11
TORSDOF 7
ENDMDL
MODEL 7
REMARK minimizedAffinity -10.2408714
REMARK CNNscore 0.682711363
REMARK CNNaffinity 6.92619562
REMARK SMILES CC(=O)CCCC(=O)Nc1cc(Cc2n[nH]c(=O)c3c2CCCC3)ccc1F
REMARK SMILES IDX 7 1 8 2 9 3 6 5 5 6 4 7 2 8 3 9 1 10 10 11 11 12 27 13 12 14
REMARK SMILES IDX 26 15 25 16 28 17 13 18 14 19 15 20 20 21 16 22 19 23 21 24
REMARK SMILES IDX 17 25 24 26 22 27 18 28 23 29
REMARK H PARENT 9 4 16 30
ROOT
ATOM      1  C   UNL     1     -43.121   1.170  -7.051  1.00  0.00     0.224 C 
ATOM      2  O   UNL     1     -42.769   1.398  -8.202  1.00  0.00    -0.275 OA
ATOM      3  N   UNL     1     -42.598   1.743  -5.907  1.00  0.00    -0.324 N 
ATOM      4  H   UNL     1     -42.997   1.462  -5.017  1.00  0.00     0.170 HD
ENDROOT
BRANCH   1   5
ATOM      5  C   UNL     1     -44.237   0.191  -6.720  1.00  0.00     0.101 C 
BRANCH   5   6
ATOM      6  C   UNL     1     -43.721  -1.213  -6.403  1.00  0.00     0.018 C 
BRANCH   6   7
ATOM      7  C   UNL     1     -42.863  -1.756  -7.544  1.00  0.00     0.076 C 
BRANCH   7   8
ATOM      8  C   UNL     1     -41.525  -2.295  -7.071  1.00  0.00     0.129 C 
ATOM      9  O   UNL     1     -40.930  -3.206  -7.642  1.00  0.00    -0.300 OA
ATOM     10  C   UNL     1     -40.940  -1.635  -5.848  1.00  0.00     0.087 C 
ENDBRANCH   7   8
ENDBRANCH   6   7
ENDBRANCH   5   6
ENDBRANCH   1   5
BRANCH   3  11
ATOM     11  C   UNL     1     -41.555   2.691  -5.812  1.00  0.00     0.077 A 
ATOM     12  C   UNL     1     -40.924   3.291  -6.903  1.00  0.00     0.033 A 
ATOM     13  C   UNL     1     -41.133   3.038  -4.523  1.00  0.00     0.146 A 
ATOM     14  C   UNL     1     -39.897   4.237  -6.711  1.00  0.00    -0.040 A 
ATOM     15  C   UNL     1     -40.108   3.954  -4.312  1.00  0.00     0.042 A 
ATOM     16  C   UNL     1     -39.487   4.550  -5.406  1.00  0.00     0.007 A 
ATOM     17  F   UNL     1     -41.725   2.472  -3.459  1.00  0.00    -0.205 F 
BRANCH  14  18
ATOM     18  C   UNL     1     -39.201   4.876  -7.893  1.00  0.00     0.094 C 
BRANCH  18  19
ATOM     19  C   UNL     1     -40.104   5.751  -8.758  1.00  0.00     0.069 A 
ATOM     20  N   UNL     1     -41.013   5.134  -9.451  1.00  0.00    -0.177 NA
ATOM     21  C   UNL     1     -39.911   7.236  -8.771  1.00  0.00    -0.016 A 
ATOM     22  N   UNL     1     -41.841   5.895 -10.215  1.00  0.00    -0.243 N 
ATOM     23  C   UNL     1     -40.766   7.949  -9.525  1.00  0.00     0.024 A 
ATOM     24  C   UNL     1     -38.803   7.882  -7.987  1.00  0.00     0.038 C 
ATOM     25  C   UNL     1     -41.818   7.260 -10.314  1.00  0.00     0.267 A 
ATOM     26  C   UNL     1     -40.732   9.448  -9.627  1.00  0.00     0.042 C 
ATOM     27  C   UNL     1     -38.536   9.333  -8.401  1.00  0.00     0.005 C 
ATOM     28  O   UNL     1     -42.606   7.880 -11.020  1.00  0.00    -0.268 OA
ATOM     29  C   UNL     1     -39.841  10.102  -8.568  1.00  0.00     0.005 C 
ATOM     30  H   UNL     1     -42.566   5.404 -10.728  1.00  0.00     0.194 HD
ENDBRANCH  18  19
ENDBRANCH  14  18
ENDBRANCH   3  11
TORSDOF 7
ENDMDL
MODEL 8
REMARK minimizedAffinity -9.56643772
REMARK CNNscore 0.67828548
REMARK CNNaffinity 7.02842855
REMARK SMILES CC(=O)CCCC(=O)Nc1cc(Cc2n[nH]c(=O)c3c2CCCC3)ccc1F
REMARK SMILES IDX 7 1 8 2 9 3 6 5 5 6 4 7 2 8 3 9 1 10 10 11 11 12 27 13 12 14
REMARK SMILES IDX 26 15 25 16 28 17 13 18 14 19 15 20 20 21 16 22 19 23 21 24
REMARK SMILES IDX 17 25 24 26 22 27 18 28 23 29
REMARK H PARENT 9 4 16 30
ROOT
ATOM      1  C   UNL     1     -37.356   0.888  -7.033  1.00  0.00     0.224 C 
ATOM      2  O   UNL     1     -37.805   1.113  -5.917  1.00  0.00    -0.275 OA
ATOM      3  N   UNL     1     -36.753   1.806  -7.873  1.00  0.00    -0.324 N 
ATOM      4  H   UNL     1     -36.419   1.471  -8.772  1.00  0.00     0.170 HD
ENDROOT
BRANCH   1   5
ATOM      5  C   UNL     1     -37.395  -0.497  -7.663  1.00  0.00     0.101 C 
BRANCH   5   6
ATOM      6  C   UNL     1     -38.802  -0.918  -8.083  1.00  0.00     0.018 C 
BRANCH   6   7
ATOM      7  C   UNL     1     -39.434   0.117  -9.012  1.00  0.00     0.076 C 
BRANCH   7   8
ATOM      8  C   UNL     1     -39.267  -0.229 -10.481  1.00  0.00     0.129 C 
ATOM      9  O   UNL     1     -40.199  -0.213 -11.282  1.00  0.00    -0.300 OA
ATOM     10  C   UNL     1     -37.871  -0.588 -10.923  1.00  0.00     0.087 C 
ENDBRANCH   7   8
ENDBRANCH   6   7
ENDBRANCH   5   6
ENDBRANCH   1   5
BRANCH   3  11
ATOM     11  C   UNL     1     -36.537   3.181  -7.641  1.00  0.00     0.077 A 
ATOM     12  C   UNL     1     -37.543   4.108  -7.362  1.00  0.00     0.033 A 
ATOM     13  C   UNL     1     -35.213   3.633  -7.701  1.00  0.00     0.146 A 
ATOM     14  C   UNL     1     -37.231   5.463  -7.132  1.00  0.00    -0.040 A 
ATOM     15  C   UNL     1     -34.886   4.969  -7.497  1.00  0.00     0.042 A 
ATOM     16  C   UNL     1     -35.896   5.886  -7.217  1.00  0.00     0.007 A 
ATOM     17  F   UNL     1     -34.229   2.758  -7.968  1.00  0.00    -0.205 F 
BRANCH  14  18
ATOM     18  C   UNL     1     -38.323   6.472  -6.848  1.00  0.00     0.094 C 
BRANCH  18  19
ATOM     19  C   UNL     1     -39.363   6.604  -7.957  1.00  0.00     0.069 A 
ATOM     20  N   UNL     1     -40.008   5.521  -8.275  1.00  0.00    -0.177 NA
ATOM     21  C   UNL     1     -39.590   7.931  -8.612  1.00  0.00    -0.016 A 
ATOM     22  N   UNL     1     -40.952   5.617  -9.247  1.00  0.00    -0.243 N 
ATOM     23  C   UNL     1     -40.547   7.982  -9.554  1.00  0.00     0.024 A 
ATOM     24  C   UNL     1     -38.770   9.133  -8.235  1.00  0.00     0.038 C 
ATOM     25  C   UNL     1     -41.301   6.757  -9.920  1.00  0.00     0.267 A 
ATOM     26  C   UNL     1     -40.923   9.239 -10.288  1.00  0.00     0.042 C 
ATOM     27  C   UNL     1     -38.886  10.283  -9.242  1.00  0.00     0.005 C 
ATOM     28  O   UNL     1     -42.173   6.768 -10.784  1.00  0.00    -0.268 OA
ATOM     29  C   UNL     1     -40.336  10.503  -9.655  1.00  0.00     0.005 C 
ATOM     30  H   UNL     1     -41.469   4.772  -9.466  1.00  0.00     0.194 HD
ENDBRANCH  18  19
ENDBRANCH  14  18
ENDBRANCH   3  11
TORSDOF 7
ENDMDL
MODEL 9
REMARK minimizedAffinity -8.59113693
REMARK CNNscore 0.63341254
REMARK CNNaffinity 7.03193521
REMARK SMILES CC(=O)CCCC(=O)Nc1cc(Cc2n[nH]c(=O)c3c2CCCC3)ccc1F
REMARK SMILES IDX 7 1 8 2 9 3 6 5 5 6 4 7 2 8 3 9 1 10 10 11 11 12 27 13 12 14
REMARK SMILES IDX 26 15 25 16 28 17 13 18 14 19 15 20 20 21 16 22 19 23 21 24
REMARK SMILES IDX 17 25 24 26 22 27 18 28 23 29
REMARK H PARENT 9 4 16 30
ROOT
ATOM      1  C   UNL     1     -34.063   4.009  -5.099  1.00  0.00     0.224 C 
ATOM      2  O   UNL     1     -34.514   4.094  -3.964  1.00  0.00    -0.275 OA
ATOM      3  N   UNL     1     -34.633   4.529  -6.247  1.00  0.00    -0.324 N 
ATOM      4  H   UNL     1     -34.138   4.387  -7.122  1.00  0.00     0.170 HD
ENDROOT
BRANCH   1   5
ATOM      5  C   UNL     1     -32.753   3.298  -5.404  1.00  0.00     0.101 C 
BRANCH   5   6
ATOM      6  C   UNL     1     -32.496   2.106  -4.483  1.00  0.00     0.018 C 
BRANCH   6   7
ATOM      7  C   UNL     1     -32.723   0.785  -5.214  1.00  0.00     0.076 C 
BRANCH   7   8
ATOM      8  C   UNL     1     -33.217   0.976  -6.637  1.00  0.00     0.129 C 
ATOM      9  O   UNL     1     -34.405   0.919  -6.947  1.00  0.00    -0.300 OA
ATOM     10  C   UNL     1     -32.159   1.258  -7.674  1.00  0.00     0.087 C 
ENDBRANCH   7   8
ENDBRANCH   6   7
ENDBRANCH   5   6
ENDBRANCH   1   5
BRANCH   3  11
ATOM     11  C   UNL     1     -35.842   5.248  -6.365  1.00  0.00     0.077 A 
ATOM     12  C   UNL     1     -37.069   4.686  -6.723  1.00  0.00     0.033 A 
ATOM     13  C   UNL     1     -35.789   6.622  -6.105  1.00  0.00     0.146 A 
ATOM     14  C   UNL     1     -38.230   5.482  -6.804  1.00  0.00    -0.040 A 
ATOM     15  C   UNL     1     -36.918   7.429  -6.200  1.00  0.00     0.042 A 
ATOM     16  C   UNL     1     -38.138   6.859  -6.554  1.00  0.00     0.007 A 
ATOM     17  F   UNL     1     -34.619   7.184  -5.760  1.00  0.00    -0.205 F 
BRANCH  14  18
ATOM     18  C   UNL     1     -39.557   4.877  -7.209  1.00  0.00     0.094 C 
BRANCH  18  19
ATOM     19  C   UNL     1     -40.265   5.613  -8.343  1.00  0.00     0.069 A 
ATOM     20  N   UNL     1     -41.111   4.918  -9.043  1.00  0.00    -0.177 NA
ATOM     21  C   UNL     1     -39.966   7.059  -8.593  1.00  0.00    -0.016 A 
ATOM     22  N   UNL     1     -41.767   5.558 -10.046  1.00  0.00    -0.243 N 
ATOM     23  C   UNL     1     -40.654   7.654  -9.583  1.00  0.00     0.024 A 
ATOM     24  C   UNL     1     -38.934   7.790  -7.781  1.00  0.00     0.038 C 
ATOM     25  C   UNL     1     -41.632   6.877 -10.384  1.00  0.00     0.267 A 
ATOM     26  C   UNL     1     -40.497   9.105  -9.947  1.00  0.00     0.042 C 
ATOM     27  C   UNL     1     -38.508   9.124  -8.405  1.00  0.00     0.005 C 
ATOM     28  O   UNL     1     -42.268   7.388 -11.301  1.00  0.00    -0.268 OA
ATOM     29  C   UNL     1     -39.718   9.906  -8.901  1.00  0.00     0.005 C 
ATOM     30  H   UNL     1     -42.447   5.012 -10.566  1.00  0.00     0.194 HD
ENDBRANCH  18  19
ENDBRANCH  14  18
ENDBRANCH   3  11
TORSDOF 7
ENDMDL
