MODEL 1
REMARK VINA RESULT:      -9.6      0.000      0.000
REMARK SMILES C=CC(=O)Nc1ccc(-n2nc3c(=O)[nH]nc(N)c3c2-c2oc3ccc(C)cc3c2C)cc1
REMARK SMILES IDX 10 1 11 2 12 3 13 4 14 5 15 6 16 7 17 8 19 9 20 10 9 12 6 13
REMARK SMILES IDX 7 14 33 15 8 16 32 17 5 18 3 19 4 20 2 22 1 23 21 24 22 25
REMARK SMILES IDX 30 26 23 27 29 28 24 29 28 30 25 31 26 32 31 33 27 34 18 35
REMARK H PARENT 15 11 5 21 18 36 18 37
ROOT
ATOM      1  N   UNL     1      18.987  -3.831 -11.776  1.00  0.00    -0.228 N 
ATOM      2  N   UNL     1      19.383  -3.402 -13.009  1.00  0.00    -0.161 NA
ATOM      3  C   UNL     1      20.717  -3.386 -12.952  1.00  0.00     0.164 A 
ATOM      4  C   UNL     1      21.631  -2.942 -13.995  1.00  0.00     0.292 A 
ATOM      5  O   UNL     1      21.298  -2.485 -15.084  1.00  0.00    -0.265 OA
ATOM      6  N   UNL     1      22.967  -3.082 -13.635  1.00  0.00    -0.240 N 
ATOM      7  N   UNL     1      23.458  -3.590 -12.442  1.00  0.00    -0.154 NA
ATOM      8  C   UNL     1      22.625  -3.988 -11.523  1.00  0.00     0.155 A 
ATOM      9  C   UNL     1      21.204  -3.896 -11.739  1.00  0.00     0.081 A 
ATOM     10  C   UNL     1      20.080  -4.264 -11.022  1.00  0.00     0.122 A 
ATOM     11  H   UNL     1      23.657  -2.792 -14.319  1.00  0.00     0.194 HD
ENDROOT
BRANCH   1  12
ATOM     12  C   UNL     1      17.594  -3.770 -11.446  1.00  0.00     0.066 A 
ATOM     13  C   UNL     1      14.830  -3.580 -10.864  1.00  0.00     0.041 A 
ATOM     14  C   UNL     1      15.395  -2.796 -11.866  1.00  0.00     0.028 A 
ATOM     15  C   UNL     1      15.657  -4.449 -10.146  1.00  0.00     0.028 A 
ATOM     16  C   UNL     1      16.765  -2.883 -12.151  1.00  0.00     0.030 A 
ATOM     17  C   UNL     1      17.029  -4.539 -10.424  1.00  0.00     0.030 A 
BRANCH  13  18
ATOM     18  N   UNL     1      13.463  -3.562 -10.522  1.00  0.00    -0.323 N 
ATOM     19  C   UNL     1      12.849  -2.767  -9.579  1.00  0.00     0.247 C 
ATOM     20  O   UNL     1      13.377  -1.980  -8.804  1.00  0.00    -0.270 OA
ATOM     21  H   UNL     1      12.883  -4.253 -10.978  1.00  0.00     0.170 HD
BRANCH  19  22
ATOM     22  C   UNL     1      11.377  -2.977  -9.479  1.00  0.00     0.064 C 
ATOM     23  C   UNL     1      10.671  -3.840 -10.223  1.00  0.00     0.014 C 
ENDBRANCH  19  22
ENDBRANCH  13  18
ENDBRANCH   1  12
BRANCH  10  24
ATOM     24  C   UNL     1      20.021  -4.976  -9.785  1.00  0.00     0.157 A 
ATOM     25  O   UNL     1      20.224  -6.329  -9.735  1.00  0.00    -0.454 OA
ATOM     26  C   UNL     1      19.716  -4.505  -8.512  1.00  0.00     0.005 A 
ATOM     27  C   UNL     1      20.105  -6.721  -8.441  1.00  0.00     0.135 A 
ATOM     28  C   UNL     1      19.791  -5.636  -7.639  1.00  0.00     0.024 A 
ATOM     29  C   UNL     1      20.265  -8.024  -7.976  1.00  0.00     0.048 A 
ATOM     30  C   UNL     1      19.617  -5.860  -6.259  1.00  0.00     0.015 A 
ATOM     31  C   UNL     1      20.096  -8.222  -6.602  1.00  0.00     0.007 A 
ATOM     32  C   UNL     1      19.766  -7.164  -5.745  1.00  0.00    -0.050 A 
ATOM     33  C   UNL     1      19.356  -3.112  -8.134  1.00  0.00     0.049 C 
ATOM     34  C   UNL     1      19.615  -7.398  -4.269  1.00  0.00     0.044 C 
ENDBRANCH  10  24
BRANCH   8  35
ATOM     35  N   UNL     1      23.032  -4.491 -10.329  1.00  0.00    -0.382 N 
ATOM     36  H   UNL     1      22.464  -5.225  -9.919  1.00  0.00     0.158 HD
ATOM     37  H   UNL     1      23.292  -3.773  -9.661  1.00  0.00     0.158 HD
ENDBRANCH   8  35
TORSDOF 5
ENDMDL
MODEL 2
REMARK VINA RESULT:      -9.1      2.562      8.258
REMARK SMILES C=CC(=O)Nc1ccc(-n2nc3c(=O)[nH]nc(N)c3c2-c2oc3ccc(C)cc3c2C)cc1
REMARK SMILES IDX 10 1 11 2 12 3 13 4 14 5 15 6 16 7 17 8 19 9 20 10 9 12 6 13
REMARK SMILES IDX 7 14 33 15 8 16 32 17 5 18 3 19 4 20 2 22 1 23 21 24 22 25
REMARK SMILES IDX 30 26 23 27 29 28 24 29 28 30 25 31 26 32 31 33 27 34 18 35
REMARK H PARENT 15 11 5 21 18 36 18 37
ROOT
ATOM      1  N   UNL     1      18.228  -4.196  -9.980  1.00  0.00    -0.228 N 
ATOM      2  N   UNL     1      16.993  -4.396  -9.437  1.00  0.00    -0.161 NA
ATOM      3  C   UNL     1      16.151  -3.773 -10.267  1.00  0.00     0.164 A 
ATOM      4  C   UNL     1      14.711  -3.632 -10.105  1.00  0.00     0.292 A 
ATOM      5  O   UNL     1      14.058  -4.050  -9.154  1.00  0.00    -0.265 OA
ATOM      6  N   UNL     1      14.116  -2.953 -11.163  1.00  0.00    -0.240 N 
ATOM      7  N   UNL     1      14.748  -2.446 -12.287  1.00  0.00    -0.154 NA
ATOM      8  C   UNL     1      16.037  -2.587 -12.416  1.00  0.00     0.155 A 
ATOM      9  C   UNL     1      16.802  -3.258 -11.398  1.00  0.00     0.081 A 
ATOM     10  C   UNL     1      18.130  -3.615 -11.247  1.00  0.00     0.122 A 
ATOM     11  H   UNL     1      13.111  -2.822 -11.114  1.00  0.00     0.194 HD
ENDROOT
BRANCH   1  12
ATOM     12  C   UNL     1      19.380  -4.577  -9.218  1.00  0.00     0.066 A 
ATOM     13  C   UNL     1      21.608  -5.411  -7.683  1.00  0.00     0.041 A 
ATOM     14  C   UNL     1      20.454  -6.187  -7.731  1.00  0.00     0.028 A 
ATOM     15  C   UNL     1      21.636  -4.208  -8.396  1.00  0.00     0.028 A 
ATOM     16  C   UNL     1      19.347  -5.773  -8.484  1.00  0.00     0.030 A 
ATOM     17  C   UNL     1      20.532  -3.786  -9.149  1.00  0.00     0.030 A 
BRANCH  13  18
ATOM     18  N   UNL     1      22.767  -5.759  -6.961  1.00  0.00    -0.323 N 
ATOM     19  C   UNL     1      23.766  -6.623  -7.352  1.00  0.00     0.247 C 
ATOM     20  O   UNL     1      23.806  -7.314  -8.363  1.00  0.00    -0.270 OA
ATOM     21  H   UNL     1      22.840  -5.376  -6.028  1.00  0.00     0.170 HD
BRANCH  19  22
ATOM     22  C   UNL     1      24.874  -6.753  -6.364  1.00  0.00     0.064 C 
ATOM     23  C   UNL     1      24.720  -7.102  -5.079  1.00  0.00     0.014 C 
ENDBRANCH  19  22
ENDBRANCH  13  18
ENDBRANCH   1  12
BRANCH  10  24
ATOM     24  C   UNL     1      19.191  -3.469 -12.191  1.00  0.00     0.157 A 
ATOM     25  O   UNL     1      19.440  -2.268 -12.799  1.00  0.00    -0.454 OA
ATOM     26  C   UNL     1      20.066  -4.430 -12.688  1.00  0.00     0.005 A 
ATOM     27  C   UNL     1      20.495  -2.435 -13.637  1.00  0.00     0.135 A 
ATOM     28  C   UNL     1      20.924  -3.753 -13.611  1.00  0.00     0.024 A 
ATOM     29  C   UNL     1      21.067  -1.437 -14.421  1.00  0.00     0.048 A 
ATOM     30  C   UNL     1      22.009  -4.113 -14.433  1.00  0.00     0.015 A 
ATOM     31  C   UNL     1      22.148  -1.815 -15.224  1.00  0.00     0.007 A 
ATOM     32  C   UNL     1      22.616  -3.136 -15.246  1.00  0.00    -0.050 A 
ATOM     33  C   UNL     1      20.091  -5.879 -12.351  1.00  0.00     0.049 C 
ATOM     34  C   UNL     1      23.795  -3.510 -16.098  1.00  0.00     0.044 C 
ENDBRANCH  10  24
BRANCH   8  35
ATOM     35  N   UNL     1      16.726  -2.112 -13.486  1.00  0.00    -0.382 N 
ATOM     36  H   UNL     1      17.663  -2.473 -13.630  1.00  0.00     0.158 HD
ATOM     37  H   UNL     1      16.672  -1.103 -13.580  1.00  0.00     0.158 HD
ENDBRANCH   8  35
TORSDOF 5
ENDMDL
MODEL 3
REMARK VINA RESULT:      -9.1      1.714      2.348
REMARK SMILES C=CC(=O)Nc1ccc(-n2nc3c(=O)[nH]nc(N)c3c2-c2oc3ccc(C)cc3c2C)cc1
REMARK SMILES IDX 10 1 11 2 12 3 13 4 14 5 15 6 16 7 17 8 19 9 20 10 9 12 6 13
REMARK SMILES IDX 7 14 33 15 8 16 32 17 5 18 3 19 4 20 2 22 1 23 21 24 22 25
REMARK SMILES IDX 30 26 23 27 29 28 24 29 28 30 25 31 26 32 31 33 27 34 18 35
REMARK H PARENT 15 11 5 21 18 36 18 37
ROOT
ATOM      1  N   UNL     1      20.196  -4.022 -11.432  1.00  0.00    -0.228 N 
ATOM      2  N   UNL     1      20.334  -3.564 -12.710  1.00  0.00    -0.161 NA
ATOM      3  C   UNL     1      21.647  -3.609 -12.948  1.00  0.00     0.164 A 
ATOM      4  C   UNL     1      22.331  -3.166 -14.155  1.00  0.00     0.292 A 
ATOM      5  O   UNL     1      21.791  -2.655 -15.131  1.00  0.00    -0.265 OA
ATOM      6  N   UNL     1      23.704  -3.378 -14.103  1.00  0.00    -0.240 N 
ATOM      7  N   UNL     1      24.420  -3.951 -13.062  1.00  0.00    -0.154 NA
ATOM      8  C   UNL     1      23.789  -4.346 -11.993  1.00  0.00     0.155 A 
ATOM      9  C   UNL     1      22.362  -4.185 -11.887  1.00  0.00     0.081 A 
ATOM     10  C   UNL     1      21.405  -4.530 -10.949  1.00  0.00     0.122 A 
ATOM     11  H   UNL     1      24.241  -3.093 -14.914  1.00  0.00     0.194 HD
ENDROOT
BRANCH   1  12
ATOM     12  C   UNL     1      18.915  -3.912 -10.801  1.00  0.00     0.066 A 
ATOM     13  C   UNL     1      16.428  -3.686  -9.466  1.00  0.00     0.041 A 
ATOM     14  C   UNL     1      17.621  -3.623  -8.751  1.00  0.00     0.028 A 
ATOM     15  C   UNL     1      16.486  -3.876 -10.851  1.00  0.00     0.028 A 
ATOM     16  C   UNL     1      18.853  -3.742  -9.408  1.00  0.00     0.030 A 
ATOM     17  C   UNL     1      17.715  -3.998 -11.515  1.00  0.00     0.030 A 
BRANCH  13  18
ATOM     18  N   UNL     1      15.150  -3.564  -8.886  1.00  0.00    -0.323 N 
ATOM     19  C   UNL     1      14.189  -2.619  -9.174  1.00  0.00     0.247 C 
ATOM     20  O   UNL     1      14.284  -1.660  -9.929  1.00  0.00    -0.270 OA
ATOM     21  H   UNL     1      14.942  -4.205  -8.133  1.00  0.00     0.170 HD
BRANCH  19  22
ATOM     22  C   UNL     1      12.927  -2.785  -8.398  1.00  0.00     0.064 C 
ATOM     23  C   UNL     1      12.243  -1.786  -7.823  1.00  0.00     0.014 C 
ENDBRANCH  19  22
ENDBRANCH  13  18
ENDBRANCH   1  12
BRANCH  10  24
ATOM     24  C   UNL     1      21.583  -5.285  -9.750  1.00  0.00     0.157 A 
ATOM     25  O   UNL     1      22.293  -4.782  -8.694  1.00  0.00    -0.454 OA
ATOM     26  C   UNL     1      21.168  -6.580  -9.455  1.00  0.00     0.005 A 
ATOM     27  C   UNL     1      22.293  -5.715  -7.708  1.00  0.00     0.135 A 
ATOM     28  C   UNL     1      21.612  -6.849  -8.123  1.00  0.00     0.024 A 
ATOM     29  C   UNL     1      22.893  -5.569  -6.460  1.00  0.00     0.048 A 
ATOM     30  C   UNL     1      21.521  -7.932  -7.227  1.00  0.00     0.015 A 
ATOM     31  C   UNL     1      22.784  -6.654  -5.583  1.00  0.00     0.007 A 
ATOM     32  C   UNL     1      22.117  -7.830  -5.954  1.00  0.00    -0.050 A 
ATOM     33  C   UNL     1      20.433  -7.512 -10.353  1.00  0.00     0.049 C 
ATOM     34  C   UNL     1      21.991  -8.971  -4.985  1.00  0.00     0.044 C 
ENDBRANCH  10  24
BRANCH   8  35
ATOM     35  N   UNL     1      24.421  -4.910 -10.931  1.00  0.00    -0.382 N 
ATOM     36  H   UNL     1      25.326  -5.336 -11.105  1.00  0.00     0.158 HD
ATOM     37  H   UNL     1      23.813  -5.491 -10.366  1.00  0.00     0.158 HD
ENDBRANCH   8  35
TORSDOF 5
ENDMDL
MODEL 4
REMARK VINA RESULT:      -8.6      2.847      7.565
REMARK SMILES C=CC(=O)Nc1ccc(-n2nc3c(=O)[nH]nc(N)c3c2-c2oc3ccc(C)cc3c2C)cc1
REMARK SMILES IDX 10 1 11 2 12 3 13 4 14 5 15 6 16 7 17 8 19 9 20 10 9 12 6 13
REMARK SMILES IDX 7 14 33 15 8 16 32 17 5 18 3 19 4 20 2 22 1 23 21 24 22 25
REMARK SMILES IDX 30 26 23 27 29 28 24 29 28 30 25 31 26 32 31 33 27 34 18 35
REMARK H PARENT 15 11 5 21 18 36 18 37
ROOT
ATOM      1  N   UNL     1      18.741  -4.180 -11.651  1.00  0.00    -0.228 N 
ATOM      2  N   UNL     1      17.391  -3.991 -11.599  1.00  0.00    -0.161 NA
ATOM      3  C   UNL     1      17.179  -2.860 -12.277  1.00  0.00     0.164 A 
ATOM      4  C   UNL     1      15.904  -2.181 -12.466  1.00  0.00     0.292 A 
ATOM      5  O   UNL     1      14.830  -2.543 -11.997  1.00  0.00    -0.265 OA
ATOM      6  N   UNL     1      16.015  -1.039 -13.251  1.00  0.00    -0.240 N 
ATOM      7  N   UNL     1      17.169  -0.540 -13.837  1.00  0.00    -0.154 NA
ATOM      8  C   UNL     1      18.298  -1.166 -13.662  1.00  0.00     0.155 A 
ATOM      9  C   UNL     1      18.353  -2.361 -12.861  1.00  0.00     0.081 A 
ATOM     10  C   UNL     1      19.340  -3.269 -12.525  1.00  0.00     0.122 A 
ATOM     11  H   UNL     1      15.162  -0.519 -13.423  1.00  0.00     0.194 HD
ENDROOT
BRANCH   1  12
ATOM     12  C   UNL     1      19.318  -5.213 -10.844  1.00  0.00     0.066 A 
ATOM     13  C   UNL     1      20.435  -7.203  -9.168  1.00  0.00     0.041 A 
ATOM     14  C   UNL     1      19.852  -6.065  -8.620  1.00  0.00     0.028 A 
ATOM     15  C   UNL     1      20.469  -7.335 -10.561  1.00  0.00     0.028 A 
ATOM     16  C   UNL     1      19.305  -5.075  -9.447  1.00  0.00     0.030 A 
ATOM     17  C   UNL     1      19.926  -6.347 -11.395  1.00  0.00     0.030 A 
BRANCH  13  18
ATOM     18  N   UNL     1      20.996  -8.250  -8.410  1.00  0.00    -0.323 N 
ATOM     19  C   UNL     1      22.235  -8.272  -7.807  1.00  0.00     0.247 C 
ATOM     20  O   UNL     1      23.117  -7.425  -7.875  1.00  0.00    -0.270 OA
ATOM     21  H   UNL     1      20.451  -9.099  -8.355  1.00  0.00     0.170 HD
BRANCH  19  22
ATOM     22  C   UNL     1      22.517  -9.525  -7.051  1.00  0.00     0.064 C 
ATOM     23  C   UNL     1      22.211  -9.731  -5.763  1.00  0.00     0.014 C 
ENDBRANCH  19  22
ENDBRANCH  13  18
ENDBRANCH   1  12
BRANCH  10  24
ATOM     24  C   UNL     1      20.689  -3.314 -12.994  1.00  0.00     0.157 A 
ATOM     25  O   UNL     1      20.973  -3.419 -14.328  1.00  0.00    -0.454 OA
ATOM     26  C   UNL     1      21.874  -3.321 -12.265  1.00  0.00     0.005 A 
ATOM     27  C   UNL     1      22.323  -3.441 -14.467  1.00  0.00     0.135 A 
ATOM     28  C   UNL     1      22.933  -3.383 -13.223  1.00  0.00     0.024 A 
ATOM     29  C   UNL     1      23.008  -3.517 -15.677  1.00  0.00     0.048 A 
ATOM     30  C   UNL     1      24.341  -3.408 -13.174  1.00  0.00     0.015 A 
ATOM     31  C   UNL     1      24.405  -3.531 -15.605  1.00  0.00     0.007 A 
ATOM     32  C   UNL     1      25.075  -3.488 -14.375  1.00  0.00    -0.050 A 
ATOM     33  C   UNL     1      22.016  -3.298 -10.784  1.00  0.00     0.049 C 
ATOM     34  C   UNL     1      26.576  -3.478 -14.326  1.00  0.00     0.044 C 
ENDBRANCH  10  24
BRANCH   8  35
ATOM     35  N   UNL     1      19.469  -0.734 -14.199  1.00  0.00    -0.382 N 
ATOM     36  H   UNL     1      19.991  -1.397 -14.763  1.00  0.00     0.158 HD
ATOM     37  H   UNL     1      20.052  -0.233 -13.537  1.00  0.00     0.158 HD
ENDBRANCH   8  35
TORSDOF 5
ENDMDL
MODEL 5
REMARK VINA RESULT:      -8.2      3.236      8.369
REMARK SMILES C=CC(=O)Nc1ccc(-n2nc3c(=O)[nH]nc(N)c3c2-c2oc3ccc(C)cc3c2C)cc1
REMARK SMILES IDX 10 1 11 2 12 3 13 4 14 5 15 6 16 7 17 8 19 9 20 10 9 12 6 13
REMARK SMILES IDX 7 14 33 15 8 16 32 17 5 18 3 19 4 20 2 22 1 23 21 24 22 25
REMARK SMILES IDX 30 26 23 27 29 28 24 29 28 30 25 31 26 32 31 33 27 34 18 35
REMARK H PARENT 15 11 5 21 18 36 18 37
ROOT
ATOM      1  N   UNL     1      19.627  -5.349  -9.002  1.00  0.00    -0.228 N 
ATOM      2  N   UNL     1      18.318  -5.421  -8.625  1.00  0.00    -0.161 NA
ATOM      3  C   UNL     1      17.649  -4.790  -9.594  1.00  0.00     0.164 A 
ATOM      4  C   UNL     1      16.216  -4.532  -9.641  1.00  0.00     0.292 A 
ATOM      5  O   UNL     1      15.410  -4.840  -8.768  1.00  0.00    -0.265 OA
ATOM      6  N   UNL     1      15.825  -3.878 -10.804  1.00  0.00    -0.240 N 
ATOM      7  N   UNL     1      16.642  -3.491 -11.855  1.00  0.00    -0.154 NA
ATOM      8  C   UNL     1      17.920  -3.736 -11.798  1.00  0.00     0.155 A 
ATOM      9  C   UNL     1      18.485  -4.397 -10.650  1.00  0.00     0.081 A 
ATOM     10  C   UNL     1      19.747  -4.842 -10.299  1.00  0.00     0.122 A 
ATOM     11  H   UNL     1      14.838  -3.670 -10.901  1.00  0.00     0.194 HD
ENDROOT
BRANCH   1  12
ATOM     12  C   UNL     1      20.631  -5.766  -8.070  1.00  0.00     0.066 A 
ATOM     13  C   UNL     1      22.660  -6.501  -6.236  1.00  0.00     0.041 A 
ATOM     14  C   UNL     1      22.670  -5.244  -6.834  1.00  0.00     0.028 A 
ATOM     15  C   UNL     1      21.635  -7.393  -6.571  1.00  0.00     0.028 A 
ATOM     16  C   UNL     1      21.672  -4.880  -7.747  1.00  0.00     0.030 A 
ATOM     17  C   UNL     1      20.634  -7.037  -7.486  1.00  0.00     0.030 A 
BRANCH  13  18
ATOM     18  N   UNL     1      23.617  -6.941  -5.301  1.00  0.00    -0.323 N 
ATOM     19  C   UNL     1      24.981  -6.757  -5.354  1.00  0.00     0.247 C 
ATOM     20  O   UNL     1      25.634  -6.245  -6.255  1.00  0.00    -0.270 OA
ATOM     21  H   UNL     1      23.266  -7.507  -4.541  1.00  0.00     0.170 HD
BRANCH  19  22
ATOM     22  C   UNL     1      25.713  -7.326  -4.187  1.00  0.00     0.064 C 
ATOM     23  C   UNL     1      26.453  -6.617  -3.324  1.00  0.00     0.014 C 
ENDBRANCH  19  22
ENDBRANCH  13  18
ENDBRANCH   1  12
BRANCH  10  24
ATOM     24  C   UNL     1      20.933  -4.835 -11.094  1.00  0.00     0.157 A 
ATOM     25  O   UNL     1      21.376  -3.690 -11.697  1.00  0.00    -0.454 OA
ATOM     26  C   UNL     1      21.767  -5.894 -11.439  1.00  0.00     0.005 A 
ATOM     27  C   UNL     1      22.511  -3.989 -12.379  1.00  0.00     0.135 A 
ATOM     28  C   UNL     1      22.802  -5.339 -12.256  1.00  0.00     0.024 A 
ATOM     29  C   UNL     1      23.277  -3.082 -13.107  1.00  0.00     0.048 A 
ATOM     30  C   UNL     1      23.946  -5.833 -12.912  1.00  0.00     0.015 A 
ATOM     31  C   UNL     1      24.413  -3.592 -13.744  1.00  0.00     0.007 A 
ATOM     32  C   UNL     1      24.748  -4.951 -13.664  1.00  0.00    -0.050 A 
ATOM     33  C   UNL     1      21.606  -7.324 -11.060  1.00  0.00     0.049 C 
ATOM     34  C   UNL     1      25.988  -5.469 -14.335  1.00  0.00     0.044 C 
ENDBRANCH  10  24
BRANCH   8  35
ATOM     35  N   UNL     1      18.783  -3.382 -12.785  1.00  0.00    -0.382 N 
ATOM     36  H   UNL     1      19.241  -2.481 -12.697  1.00  0.00     0.158 HD
ATOM     37  H   UNL     1      18.417  -3.550 -13.716  1.00  0.00     0.158 HD
ENDBRANCH   8  35
TORSDOF 5
ENDMDL
MODEL 6
REMARK VINA RESULT:      -8.1      4.001      7.245
REMARK SMILES C=CC(=O)Nc1ccc(-n2nc3c(=O)[nH]nc(N)c3c2-c2oc3ccc(C)cc3c2C)cc1
REMARK SMILES IDX 10 1 11 2 12 3 13 4 14 5 15 6 16 7 17 8 19 9 20 10 9 12 6 13
REMARK SMILES IDX 7 14 33 15 8 16 32 17 5 18 3 19 4 20 2 22 1 23 21 24 22 25
REMARK SMILES IDX 30 26 23 27 29 28 24 29 28 30 25 31 26 32 31 33 27 34 18 35
REMARK H PARENT 15 11 5 21 18 36 18 37
ROOT
ATOM      1  N   UNL     1      23.329  -6.915  -8.043  1.00  0.00    -0.228 N 
ATOM      2  N   UNL     1      24.605  -7.239  -7.688  1.00  0.00    -0.161 NA
ATOM      3  C   UNL     1      25.285  -7.254  -8.838  1.00  0.00     0.164 A 
ATOM      4  C   UNL     1      26.687  -7.607  -9.019  1.00  0.00     0.292 A 
ATOM      5  O   UNL     1      27.448  -7.972  -8.129  1.00  0.00    -0.265 OA
ATOM      6  N   UNL     1      27.103  -7.492 -10.340  1.00  0.00    -0.240 N 
ATOM      7  N   UNL     1      26.337  -7.083 -11.422  1.00  0.00    -0.154 NA
ATOM      8  C   UNL     1      25.087  -6.766 -11.238  1.00  0.00     0.155 A 
ATOM      9  C   UNL     1      24.500  -6.845  -9.926  1.00  0.00     0.081 A 
ATOM     10  C   UNL     1      23.262  -6.542  -9.388  1.00  0.00     0.122 A 
ATOM     11  H   UNL     1      28.071  -7.721 -10.536  1.00  0.00     0.194 HD
ENDROOT
BRANCH   1  12
ATOM     12  C   UNL     1      22.299  -7.009  -7.051  1.00  0.00     0.066 A 
ATOM     13  C   UNL     1      20.312  -7.127  -5.037  1.00  0.00     0.041 A 
ATOM     14  C   UNL     1      21.408  -6.280  -4.899  1.00  0.00     0.028 A 
ATOM     15  C   UNL     1      20.223  -7.925  -6.183  1.00  0.00     0.028 A 
ATOM     16  C   UNL     1      22.396  -6.225  -5.891  1.00  0.00     0.030 A 
ATOM     17  C   UNL     1      21.209  -7.878  -7.178  1.00  0.00     0.030 A 
BRANCH  13  18
ATOM     18  N   UNL     1      19.270  -7.235  -4.095  1.00  0.00    -0.323 N 
ATOM     19  C   UNL     1      19.219  -8.068  -2.999  1.00  0.00     0.247 C 
ATOM     20  O   UNL     1      20.027  -8.928  -2.673  1.00  0.00    -0.270 OA
ATOM     21  H   UNL     1      18.445  -6.681  -4.281  1.00  0.00     0.170 HD
BRANCH  19  22
ATOM     22  C   UNL     1      17.981  -7.917  -2.183  1.00  0.00     0.064 C 
ATOM     23  C   UNL     1      16.794  -7.513  -2.656  1.00  0.00     0.014 C 
ENDBRANCH  19  22
ENDBRANCH  13  18
ENDBRANCH   1  12
BRANCH  10  24
ATOM     24  C   UNL     1      22.146  -5.936 -10.039  1.00  0.00     0.157 A 
ATOM     25  O   UNL     1      21.669  -6.419 -11.227  1.00  0.00    -0.454 OA
ATOM     26  C   UNL     1      21.421  -4.806  -9.674  1.00  0.00     0.005 A 
ATOM     27  C   UNL     1      20.617  -5.647 -11.600  1.00  0.00     0.135 A 
ATOM     28  C   UNL     1      20.417  -4.632 -10.678  1.00  0.00     0.024 A 
ATOM     29  C   UNL     1      19.847  -5.833 -12.746  1.00  0.00     0.048 A 
ATOM     30  C   UNL     1      19.368  -3.722 -10.911  1.00  0.00     0.015 A 
ATOM     31  C   UNL     1      18.806  -4.922 -12.954  1.00  0.00     0.007 A 
ATOM     32  C   UNL     1      18.565  -3.869 -12.060  1.00  0.00    -0.050 A 
ATOM     33  C   UNL     1      21.656  -3.932  -8.493  1.00  0.00     0.049 C 
ATOM     34  C   UNL     1      17.424  -2.920 -12.292  1.00  0.00     0.044 C 
ENDBRANCH  10  24
BRANCH   8  35
ATOM     35  N   UNL     1      24.274  -6.363 -12.249  1.00  0.00    -0.382 N 
ATOM     36  H   UNL     1      23.274  -6.467 -12.108  1.00  0.00     0.158 HD
ATOM     37  H   UNL     1      24.580  -6.685 -13.161  1.00  0.00     0.158 HD
ENDBRANCH   8  35
TORSDOF 5
ENDMDL
MODEL 7
REMARK VINA RESULT:      -7.9     25.305     26.893
REMARK SMILES C=CC(=O)Nc1ccc(-n2nc3c(=O)[nH]nc(N)c3c2-c2oc3ccc(C)cc3c2C)cc1
REMARK SMILES IDX 10 1 11 2 12 3 13 4 14 5 15 6 16 7 17 8 19 9 20 10 9 12 6 13
REMARK SMILES IDX 7 14 33 15 8 16 32 17 5 18 3 19 4 20 2 22 1 23 21 24 22 25
REMARK SMILES IDX 30 26 23 27 29 28 24 29 28 30 25 31 26 32 31 33 27 34 18 35
REMARK H PARENT 15 11 5 21 18 36 18 37
ROOT
ATOM      1  N   UNL     1      37.618   9.727   0.378  1.00  0.00    -0.228 N 
ATOM      2  N   UNL     1      37.712   8.793   1.368  1.00  0.00    -0.161 NA
ATOM      3  C   UNL     1      38.289   7.737   0.788  1.00  0.00     0.164 A 
ATOM      4  C   UNL     1      38.559   6.444   1.400  1.00  0.00     0.292 A 
ATOM      5  O   UNL     1      38.266   6.126   2.548  1.00  0.00    -0.265 OA
ATOM      6  N   UNL     1      39.201   5.564   0.536  1.00  0.00    -0.240 N 
ATOM      7  N   UNL     1      39.587   5.815  -0.773  1.00  0.00    -0.154 NA
ATOM      8  C   UNL     1      39.341   6.981  -1.300  1.00  0.00     0.155 A 
ATOM      9  C   UNL     1      38.669   8.000  -0.537  1.00  0.00     0.081 A 
ATOM     10  C   UNL     1      38.312   9.317  -0.763  1.00  0.00     0.122 A 
ATOM     11  H   UNL     1      39.421   4.644   0.901  1.00  0.00     0.194 HD
ENDROOT
BRANCH   1  12
ATOM     12  C   UNL     1      36.860  10.916   0.629  1.00  0.00     0.066 A 
ATOM     13  C   UNL     1      35.443  13.310   1.156  1.00  0.00     0.041 A 
ATOM     14  C   UNL     1      36.812  13.233   1.395  1.00  0.00     0.028 A 
ATOM     15  C   UNL     1      34.784  12.179   0.664  1.00  0.00     0.028 A 
ATOM     16  C   UNL     1      37.514  12.046   1.143  1.00  0.00     0.030 A 
ATOM     17  C   UNL     1      35.480  10.988   0.411  1.00  0.00     0.030 A 
BRANCH  13  18
ATOM     18  N   UNL     1      34.666  14.465   1.372  1.00  0.00    -0.323 N 
ATOM     19  C   UNL     1      33.843  14.728   2.444  1.00  0.00     0.247 C 
ATOM     20  O   UNL     1      33.566  13.984   3.377  1.00  0.00    -0.270 OA
ATOM     21  H   UNL     1      34.668  15.147   0.626  1.00  0.00     0.170 HD
BRANCH  19  22
ATOM     22  C   UNL     1      33.177  16.060   2.383  1.00  0.00     0.064 C 
ATOM     23  C   UNL     1      33.750  17.185   1.933  1.00  0.00     0.014 C 
ENDBRANCH  19  22
ENDBRANCH  13  18
ENDBRANCH   1  12
BRANCH  10  24
ATOM     24  C   UNL     1      38.615  10.126  -1.901  1.00  0.00     0.157 A 
ATOM     25  O   UNL     1      38.008   9.907  -3.108  1.00  0.00    -0.454 OA
ATOM     26  C   UNL     1      39.539  11.158  -2.026  1.00  0.00     0.005 A 
ATOM     27  C   UNL     1      38.491  10.820  -3.989  1.00  0.00     0.135 A 
ATOM     28  C   UNL     1      39.442  11.620  -3.376  1.00  0.00     0.024 A 
ATOM     29  C   UNL     1      38.101  10.939  -5.321  1.00  0.00     0.048 A 
ATOM     30  C   UNL     1      40.063  12.621  -4.149  1.00  0.00     0.015 A 
ATOM     31  C   UNL     1      38.725  11.944  -6.067  1.00  0.00     0.007 A 
ATOM     32  C   UNL     1      39.703  12.775  -5.502  1.00  0.00    -0.050 A 
ATOM     33  C   UNL     1      40.464  11.666  -0.977  1.00  0.00     0.049 C 
ATOM     34  C   UNL     1      40.338  13.865  -6.318  1.00  0.00     0.044 C 
ENDBRANCH  10  24
BRANCH   8  35
ATOM     35  N   UNL     1      39.683   7.298  -2.577  1.00  0.00    -0.382 N 
ATOM     36  H   UNL     1      39.856   6.527  -3.213  1.00  0.00     0.158 HD
ATOM     37  H   UNL     1      40.388   8.024  -2.633  1.00  0.00     0.158 HD
ENDBRANCH   8  35
TORSDOF 5
ENDMDL
MODEL 8
REMARK VINA RESULT:      -7.7      3.771      7.744
REMARK SMILES C=CC(=O)Nc1ccc(-n2nc3c(=O)[nH]nc(N)c3c2-c2oc3ccc(C)cc3c2C)cc1
REMARK SMILES IDX 10 1 11 2 12 3 13 4 14 5 15 6 16 7 17 8 19 9 20 10 9 12 6 13
REMARK SMILES IDX 7 14 33 15 8 16 32 17 5 18 3 19 4 20 2 22 1 23 21 24 22 25
REMARK SMILES IDX 30 26 23 27 29 28 24 29 28 30 25 31 26 32 31 33 27 34 18 35
REMARK H PARENT 15 11 5 21 18 36 18 37
ROOT
ATOM      1  N   UNL     1      23.023  -7.335  -7.192  1.00  0.00    -0.228 N 
ATOM      2  N   UNL     1      24.360  -7.605  -7.166  1.00  0.00    -0.161 NA
ATOM      3  C   UNL     1      24.806  -7.234  -8.369  1.00  0.00     0.164 A 
ATOM      4  C   UNL     1      26.163  -7.373  -8.878  1.00  0.00     0.292 A 
ATOM      5  O   UNL     1      27.100  -7.884  -8.273  1.00  0.00    -0.265 OA
ATOM      6  N   UNL     1      26.311  -6.859 -10.161  1.00  0.00    -0.240 N 
ATOM      7  N   UNL     1      25.331  -6.255 -10.934  1.00  0.00    -0.154 NA
ATOM      8  C   UNL     1      24.124  -6.134 -10.459  1.00  0.00     0.155 A 
ATOM      9  C   UNL     1      23.805  -6.630  -9.145  1.00  0.00     0.081 A 
ATOM     10  C   UNL     1      22.679  -6.619  -8.342  1.00  0.00     0.122 A 
ATOM     11  H   UNL     1      27.235  -6.922 -10.575  1.00  0.00     0.194 HD
ENDROOT
BRANCH   1  12
ATOM     12  C   UNL     1      22.209  -7.804  -6.111  1.00  0.00     0.066 A 
ATOM     13  C   UNL     1      20.594  -8.639  -3.940  1.00  0.00     0.041 A 
ATOM     14  C   UNL     1      20.929  -7.297  -4.095  1.00  0.00     0.028 A 
ATOM     15  C   UNL     1      21.084  -9.563  -4.868  1.00  0.00     0.028 A 
ATOM     16  C   UNL     1      21.734  -6.882  -5.165  1.00  0.00     0.030 A 
ATOM     17  C   UNL     1      21.892  -9.156  -5.939  1.00  0.00     0.030 A 
BRANCH  13  18
ATOM     18  N   UNL     1      19.783  -9.137  -2.901  1.00  0.00    -0.323 N 
ATOM     19  C   UNL     1      19.863  -8.833  -1.560  1.00  0.00     0.247 C 
ATOM     20  O   UNL     1      20.698  -8.136  -0.998  1.00  0.00    -0.270 OA
ATOM     21  H   UNL     1      19.107  -9.841  -3.166  1.00  0.00     0.170 HD
BRANCH  19  22
ATOM     22  C   UNL     1      18.834  -9.514  -0.724  1.00  0.00     0.064 C 
ATOM     23  C   UNL     1      18.097 -10.563  -1.115  1.00  0.00     0.014 C 
ENDBRANCH  19  22
ENDBRANCH  13  18
ENDBRANCH   1  12
BRANCH  10  24
ATOM     24  C   UNL     1      21.427  -5.980  -8.593  1.00  0.00     0.157 A 
ATOM     25  O   UNL     1      21.039  -4.875  -7.885  1.00  0.00    -0.454 OA
ATOM     26  C   UNL     1      20.415  -6.344  -9.476  1.00  0.00     0.005 A 
ATOM     27  C   UNL     1      19.817  -4.496  -8.339  1.00  0.00     0.135 A 
ATOM     28  C   UNL     1      19.380  -5.369  -9.324  1.00  0.00     0.024 A 
ATOM     29  C   UNL     1      19.094  -3.397  -7.884  1.00  0.00     0.048 A 
ATOM     30  C   UNL     1      18.119  -5.135  -9.904  1.00  0.00     0.015 A 
ATOM     31  C   UNL     1      17.847  -3.179  -8.479  1.00  0.00     0.007 A 
ATOM     32  C   UNL     1      17.350  -4.035  -9.471  1.00  0.00    -0.050 A 
ATOM     33  C   UNL     1      20.395  -7.526 -10.380  1.00  0.00     0.049 C 
ATOM     34  C   UNL     1      16.020  -3.764 -10.113  1.00  0.00     0.044 C 
ENDBRANCH  10  24
BRANCH   8  35
ATOM     35  N   UNL     1      23.111  -5.560 -11.159  1.00  0.00    -0.382 N 
ATOM     36  H   UNL     1      23.054  -5.774 -12.149  1.00  0.00     0.158 HD
ATOM     37  H   UNL     1      22.997  -4.573 -10.960  1.00  0.00     0.158 HD
ENDBRANCH   8  35
TORSDOF 5
ENDMDL
MODEL 9
REMARK VINA RESULT:      -7.6     24.420     27.734
REMARK SMILES C=CC(=O)Nc1ccc(-n2nc3c(=O)[nH]nc(N)c3c2-c2oc3ccc(C)cc3c2C)cc1
REMARK SMILES IDX 10 1 11 2 12 3 13 4 14 5 15 6 16 7 17 8 19 9 20 10 9 12 6 13
REMARK SMILES IDX 7 14 33 15 8 16 32 17 5 18 3 19 4 20 2 22 1 23 21 24 22 25
REMARK SMILES IDX 30 26 23 27 29 28 24 29 28 30 25 31 26 32 31 33 27 34 18 35
REMARK H PARENT 15 11 5 21 18 36 18 37
ROOT
ATOM      1  N   UNL     1      39.646   1.721   7.974  1.00  0.00    -0.228 N 
ATOM      2  N   UNL     1      40.331   2.727   8.591  1.00  0.00    -0.161 NA
ATOM      3  C   UNL     1      41.258   3.101   7.704  1.00  0.00     0.164 A 
ATOM      4  C   UNL     1      42.295   4.105   7.896  1.00  0.00     0.292 A 
ATOM      5  O   UNL     1      42.485   4.742   8.928  1.00  0.00    -0.265 OA
ATOM      6  N   UNL     1      43.086   4.285   6.767  1.00  0.00    -0.240 N 
ATOM      7  N   UNL     1      42.960   3.631   5.550  1.00  0.00    -0.154 NA
ATOM      8  C   UNL     1      42.021   2.740   5.396  1.00  0.00     0.155 A 
ATOM      9  C   UNL     1      41.126   2.430   6.480  1.00  0.00     0.081 A 
ATOM     10  C   UNL     1      40.026   1.605   6.634  1.00  0.00     0.122 A 
ATOM     11  H   UNL     1      43.827   4.973   6.833  1.00  0.00     0.194 HD
ENDROOT
BRANCH   1  12
ATOM     12  C   UNL     1      38.702   0.966   8.743  1.00  0.00     0.066 A 
ATOM     13  C   UNL     1      36.912  -0.572  10.307  1.00  0.00     0.041 A 
ATOM     14  C   UNL     1      38.288  -0.731  10.448  1.00  0.00     0.028 A 
ATOM     15  C   UNL     1      36.437   0.351   9.369  1.00  0.00     0.028 A 
ATOM     16  C   UNL     1      39.176   0.024   9.670  1.00  0.00     0.030 A 
ATOM     17  C   UNL     1      37.319   1.108   8.585  1.00  0.00     0.030 A 
BRANCH  13  18
ATOM     18  N   UNL     1      35.952  -1.281  11.056  1.00  0.00    -0.323 N 
ATOM     19  C   UNL     1      35.493  -0.982  12.320  1.00  0.00     0.247 C 
ATOM     20  O   UNL     1      35.882  -0.093  13.068  1.00  0.00    -0.270 OA
ATOM     21  H   UNL     1      35.610  -2.136  10.641  1.00  0.00     0.170 HD
BRANCH  19  22
ATOM     22  C   UNL     1      34.451  -1.922  12.822  1.00  0.00     0.064 C 
ATOM     23  C   UNL     1      34.564  -3.257  12.838  1.00  0.00     0.014 C 
ENDBRANCH  19  22
ENDBRANCH  13  18
ENDBRANCH   1  12
BRANCH  10  24
ATOM     24  C   UNL     1      39.370   0.820   5.638  1.00  0.00     0.157 A 
ATOM     25  O   UNL     1      38.526   1.393   4.726  1.00  0.00    -0.454 OA
ATOM     26  C   UNL     1      39.398  -0.557   5.444  1.00  0.00     0.005 A 
ATOM     27  C   UNL     1      38.055   0.409   3.917  1.00  0.00     0.135 A 
ATOM     28  C   UNL     1      38.560  -0.819   4.314  1.00  0.00     0.024 A 
ATOM     29  C   UNL     1      37.185   0.594   2.846  1.00  0.00     0.048 A 
ATOM     30  C   UNL     1      38.167  -1.962   3.591  1.00  0.00     0.015 A 
ATOM     31  C   UNL     1      36.814  -0.554   2.137  1.00  0.00     0.007 A 
ATOM     32  C   UNL     1      37.284  -1.823   2.502  1.00  0.00    -0.050 A 
ATOM     33  C   UNL     1      40.129  -1.564   6.260  1.00  0.00     0.049 C 
ATOM     34  C   UNL     1      36.891  -3.036   1.708  1.00  0.00     0.044 C 
ENDBRANCH  10  24
BRANCH   8  35
ATOM     35  N   UNL     1      41.841   2.055   4.237  1.00  0.00    -0.382 N 
ATOM     36  H   UNL     1      40.900   2.025   3.860  1.00  0.00     0.158 HD
ATOM     37  H   UNL     1      42.298   1.149   4.233  1.00  0.00     0.158 HD
ENDBRANCH   8  35
TORSDOF 5
ENDMDL
