MODEL 1
REMARK VINA RESULT:      -7.5      0.000      0.000
REMARK SMILES C=CC(=O)N1CCN(CCCn2c(=O)c(-c3c(Cl)c(OC)cc(OC)c3Cl)cc3cnc(NC)nc32)CC1
REMARK SMILES IDX 11 1 10 2 9 3 8 4 3 5 4 6 5 7 6 8 38 9 7 10 37 11 2 12 1 13
REMARK SMILES IDX 12 14 13 15 36 16 14 17 15 18 35 19 29 20 28 21 32 22 30 23
REMARK SMILES IDX 31 24 16 25 17 26 26 27 19 28 23 29 22 30 18 31 27 32 20 33
REMARK SMILES IDX 21 34 24 35 25 36 33 37 34 38
REMARK H PARENT 33 39
ROOT
ATOM      1  C   UNL     1      20.748  -7.995 -10.386  1.00  0.00     0.129 C 
ENDROOT
BRANCH   1   2
ATOM      2  C   UNL     1      22.250  -7.871 -10.678  1.00  0.00     0.038 C 
BRANCH   2   3
ATOM      3  C   UNL     1      22.628  -6.797 -11.708  1.00  0.00     0.086 C 
BRANCH   3   4
ATOM      4  N   UNL     1      23.698  -5.885 -11.272  1.00  0.00    -0.300 NA
ATOM      5  C   UNL     1      24.943  -3.731 -14.833  1.00  0.00     0.246 C 
ATOM      6  O   UNL     1      25.865  -4.128 -15.540  1.00  0.00    -0.270 OA
ATOM      7  N   UNL     1      24.509  -4.374 -13.686  1.00  0.00    -0.337 N 
ATOM      8  C   UNL     1      25.029  -5.720 -13.437  1.00  0.00     0.135 C 
ATOM      9  C   UNL     1      23.290  -4.013 -12.950  1.00  0.00     0.135 C 
ATOM     10  C   UNL     1      24.991  -6.120 -11.951  1.00  0.00     0.106 C 
ATOM     11  C   UNL     1      23.322  -4.471 -11.480  1.00  0.00     0.106 C 
BRANCH   5  12
ATOM     12  C   UNL     1      24.265  -2.467 -15.197  1.00  0.00     0.063 C 
ATOM     13  C   UNL     1      23.586  -2.368 -16.347  1.00  0.00     0.014 C 
ENDBRANCH   5  12
ENDBRANCH   3   4
ENDBRANCH   2   3
ENDBRANCH   1   2
BRANCH   1  14
ATOM     14  N   UNL     1      20.104  -6.795  -9.867  1.00  0.00    -0.292 N 
ATOM     15  C   UNL     1      19.304  -6.038 -10.712  1.00  0.00     0.260 A 
ATOM     16  C   UNL     1      20.375  -6.404  -8.530  1.00  0.00     0.148 A 
ATOM     17  O   UNL     1      19.097  -6.320 -11.894  1.00  0.00    -0.269 OA
ATOM     18  C   UNL     1      18.637  -4.825 -10.127  1.00  0.00     0.051 A 
ATOM     19  N   UNL     1      21.180  -7.179  -7.771  1.00  0.00    -0.195 NA
ATOM     20  C   UNL     1      19.805  -5.238  -8.054  1.00  0.00     0.037 A 
ATOM     21  C   UNL     1      18.896  -4.447  -8.866  1.00  0.00     0.028 A 
ATOM     22  C   UNL     1      21.436  -6.777  -6.523  1.00  0.00     0.224 A 
ATOM     23  C   UNL     1      20.139  -4.908  -6.762  1.00  0.00     0.127 A 
ATOM     24  N   UNL     1      20.951  -5.649  -5.987  1.00  0.00    -0.221 NA
BRANCH  18  25
ATOM     25  C   UNL     1      17.645  -4.079 -10.933  1.00  0.00     0.032 A 
ATOM     26  C   UNL     1      18.067  -3.294 -12.025  1.00  0.00     0.092 A 
ATOM     27  C   UNL     1      16.270  -4.116 -10.623  1.00  0.00     0.092 A 
ATOM     28  C   UNL     1      17.142  -2.548 -12.777  1.00  0.00     0.141 A 
ATOM     29  C   UNL     1      15.336  -3.377 -11.379  1.00  0.00     0.141 A 
ATOM     30  C   UNL     1      15.782  -2.601 -12.454  1.00  0.00     0.096 A 
ATOM     31  Cl  UNL     1      19.751  -3.244 -12.473  1.00  0.00    -0.080 Cl
ATOM     32  Cl  UNL     1      15.694  -5.096  -9.306  1.00  0.00    -0.080 Cl
BRANCH  28  33
ATOM     33  O   UNL     1      17.632  -1.830 -13.840  1.00  0.00    -0.495 OA
ATOM     34  C   UNL     1      17.349  -0.435 -13.860  1.00  0.00     0.278 C 
ENDBRANCH  28  33
BRANCH  29  35
ATOM     35  O   UNL     1      14.019  -3.488 -11.008  1.00  0.00    -0.495 OA
ATOM     36  C   UNL     1      13.440  -2.428 -10.259  1.00  0.00     0.278 C 
ENDBRANCH  29  35
ENDBRANCH  18  25
BRANCH  22  37
ATOM     37  N   UNL     1      22.259  -7.612  -5.781  1.00  0.00    -0.357 N 
ATOM     38  C   UNL     1      23.522  -7.026  -5.394  1.00  0.00     0.143 C 
ATOM     39  H   UNL     1      22.320  -8.482  -6.297  1.00  0.00     0.163 HD
ENDBRANCH  22  37
ENDBRANCH   1  14
TORSDOF 9
ENDMDL
MODEL 2
REMARK VINA RESULT:      -7.4      0.371      2.284
REMARK SMILES C=CC(=O)N1CCN(CCCn2c(=O)c(-c3c(Cl)c(OC)cc(OC)c3Cl)cc3cnc(NC)nc32)CC1
REMARK SMILES IDX 11 1 10 2 9 3 8 4 3 5 4 6 5 7 6 8 38 9 7 10 37 11 2 12 1 13
REMARK SMILES IDX 12 14 13 15 36 16 14 17 15 18 35 19 29 20 28 21 32 22 30 23
REMARK SMILES IDX 31 24 16 25 17 26 26 27 19 28 23 29 22 30 18 31 27 32 20 33
REMARK SMILES IDX 21 34 24 35 25 36 33 37 34 38
REMARK H PARENT 33 39
ROOT
ATOM      1  C   UNL     1      20.857  -8.128 -10.244  1.00  0.00     0.129 C 
ENDROOT
BRANCH   1   2
ATOM      2  C   UNL     1      22.322  -7.977 -10.679  1.00  0.00     0.038 C 
BRANCH   2   3
ATOM      3  C   UNL     1      22.609  -6.784 -11.602  1.00  0.00     0.086 C 
BRANCH   3   4
ATOM      4  N   UNL     1      23.726  -5.932 -11.165  1.00  0.00    -0.300 NA
ATOM      5  C   UNL     1      25.025  -3.776 -14.707  1.00  0.00     0.246 C 
ATOM      6  O   UNL     1      25.918  -4.204 -15.433  1.00  0.00    -0.270 OA
ATOM      7  N   UNL     1      24.576  -4.418 -13.565  1.00  0.00    -0.337 N 
ATOM      8  C   UNL     1      25.035  -5.791 -13.346  1.00  0.00     0.135 C 
ATOM      9  C   UNL     1      23.385  -4.014 -12.806  1.00  0.00     0.135 C 
ATOM     10  C   UNL     1      24.998  -6.215 -11.866  1.00  0.00     0.106 C 
ATOM     11  C   UNL     1      23.415  -4.498 -11.344  1.00  0.00     0.106 C 
BRANCH   5  12
ATOM     12  C   UNL     1      24.403  -2.476 -15.040  1.00  0.00     0.063 C 
ATOM     13  C   UNL     1      25.127  -1.503 -15.608  1.00  0.00     0.014 C 
ENDBRANCH   5  12
ENDBRANCH   3   4
ENDBRANCH   2   3
ENDBRANCH   1   2
BRANCH   1  14
ATOM     14  N   UNL     1      20.231  -6.929  -9.703  1.00  0.00    -0.292 N 
ATOM     15  C   UNL     1      19.405  -6.169 -10.522  1.00  0.00     0.260 A 
ATOM     16  C   UNL     1      20.546  -6.539  -8.375  1.00  0.00     0.148 A 
ATOM     17  O   UNL     1      19.160  -6.450 -11.696  1.00  0.00    -0.269 OA
ATOM     18  C   UNL     1      18.759  -4.957  -9.914  1.00  0.00     0.051 A 
ATOM     19  N   UNL     1      21.375  -7.315  -7.644  1.00  0.00    -0.195 NA
ATOM     20  C   UNL     1      19.993  -5.372  -7.880  1.00  0.00     0.037 A 
ATOM     21  C   UNL     1      19.058  -4.580  -8.661  1.00  0.00     0.028 A 
ATOM     22  C   UNL     1      21.671  -6.915  -6.404  1.00  0.00     0.224 A 
ATOM     23  C   UNL     1      20.369  -5.044  -6.599  1.00  0.00     0.127 A 
ATOM     24  N   UNL     1      21.205  -5.788  -5.851  1.00  0.00    -0.221 NA
BRANCH  18  25
ATOM     25  C   UNL     1      17.742  -4.209 -10.687  1.00  0.00     0.032 A 
ATOM     26  C   UNL     1      16.384  -4.272 -10.316  1.00  0.00     0.092 A 
ATOM     27  C   UNL     1      18.097  -3.438 -11.812  1.00  0.00     0.092 A 
ATOM     28  C   UNL     1      15.400  -3.600 -11.063  1.00  0.00     0.141 A 
ATOM     29  C   UNL     1      17.116  -2.754 -12.561  1.00  0.00     0.141 A 
ATOM     30  C   UNL     1      15.775  -2.838 -12.176  1.00  0.00     0.096 A 
ATOM     31  Cl  UNL     1      15.897  -5.181  -8.910  1.00  0.00    -0.080 Cl
ATOM     32  Cl  UNL     1      19.764  -3.300 -12.291  1.00  0.00    -0.080 Cl
BRANCH  28  33
ATOM     33  O   UNL     1      14.104  -3.693 -10.621  1.00  0.00    -0.495 OA
ATOM     34  C   UNL     1      13.401  -2.470 -10.426  1.00  0.00     0.278 C 
ENDBRANCH  28  33
BRANCH  29  35
ATOM     35  O   UNL     1      17.562  -2.020 -13.632  1.00  0.00    -0.495 OA
ATOM     36  C   UNL     1      17.255  -0.633 -13.671  1.00  0.00     0.278 C 
ENDBRANCH  29  35
ENDBRANCH  18  25
BRANCH  22  37
ATOM     37  N   UNL     1      22.517  -7.751  -5.690  1.00  0.00    -0.357 N 
ATOM     38  C   UNL     1      23.896  -7.322  -5.648  1.00  0.00     0.143 C 
ATOM     39  H   UNL     1      22.360  -8.686  -6.047  1.00  0.00     0.163 HD
ENDBRANCH  22  37
ENDBRANCH   1  14
TORSDOF 9
ENDMDL
MODEL 3
REMARK VINA RESULT:      -7.0      3.620      7.795
REMARK SMILES C=CC(=O)N1CCN(CCCn2c(=O)c(-c3c(Cl)c(OC)cc(OC)c3Cl)cc3cnc(NC)nc32)CC1
REMARK SMILES IDX 11 1 10 2 9 3 8 4 3 5 4 6 5 7 6 8 38 9 7 10 37 11 2 12 1 13
REMARK SMILES IDX 12 14 13 15 36 16 14 17 15 18 35 19 29 20 28 21 32 22 30 23
REMARK SMILES IDX 31 24 16 25 17 26 26 27 19 28 23 29 22 30 18 31 27 32 20 33
REMARK SMILES IDX 21 34 24 35 25 36 33 37 34 38
REMARK H PARENT 33 39
ROOT
ATOM      1  C   UNL     1      21.561  -9.353  -8.605  1.00  0.00     0.129 C 
ENDROOT
BRANCH   1   2
ATOM      2  C   UNL     1      20.345 -10.035  -7.962  1.00  0.00     0.038 C 
BRANCH   2   3
ATOM      3  C   UNL     1      20.396 -10.153  -6.432  1.00  0.00     0.086 C 
BRANCH   3   4
ATOM      4  N   UNL     1      19.661  -9.098  -5.715  1.00  0.00    -0.300 NA
ATOM      5  C   UNL     1      19.131 -10.571  -1.662  1.00  0.00     0.246 C 
ATOM      6  O   UNL     1      18.129 -11.196  -1.327  1.00  0.00    -0.270 OA
ATOM      7  N   UNL     1      19.349 -10.075  -2.936  1.00  0.00    -0.337 N 
ATOM      8  C   UNL     1      18.440 -10.523  -3.992  1.00  0.00     0.135 C 
ATOM      9  C   UNL     1      20.622  -9.500  -3.390  1.00  0.00     0.135 C 
ATOM     10  C   UNL     1      18.357  -9.543  -5.178  1.00  0.00     0.106 C 
ATOM     11  C   UNL     1      20.456  -8.553  -4.594  1.00  0.00     0.106 C 
BRANCH   5  12
ATOM     12  C   UNL     1      20.165 -10.291  -0.641  1.00  0.00     0.063 C 
ATOM     13  C   UNL     1      20.829 -11.296  -0.055  1.00  0.00     0.014 C 
ENDBRANCH   5  12
ENDBRANCH   3   4
ENDBRANCH   2   3
ENDBRANCH   1   2
BRANCH   1  14
ATOM     14  N   UNL     1      21.556  -7.896  -8.578  1.00  0.00    -0.292 N 
ATOM     15  C   UNL     1      20.773  -7.205  -9.494  1.00  0.00     0.260 A 
ATOM     16  C   UNL     1      22.410  -7.232  -7.659  1.00  0.00     0.148 A 
ATOM     17  O   UNL     1      20.067  -7.753 -10.342  1.00  0.00    -0.269 OA
ATOM     18  C   UNL     1      20.777  -5.705  -9.411  1.00  0.00     0.051 A 
ATOM     19  N   UNL     1      23.159  -7.968  -6.811  1.00  0.00    -0.195 NA
ATOM     20  C   UNL     1      22.444  -5.849  -7.670  1.00  0.00     0.037 A 
ATOM     21  C   UNL     1      21.588  -5.072  -8.549  1.00  0.00     0.028 A 
ATOM     22  C   UNL     1      23.970  -7.318  -5.971  1.00  0.00     0.224 A 
ATOM     23  C   UNL     1      23.317  -5.278  -6.774  1.00  0.00     0.127 A 
ATOM     24  N   UNL     1      24.089  -5.985  -5.929  1.00  0.00    -0.221 NA
BRANCH  18  25
ATOM     25  C   UNL     1      19.837  -4.927 -10.249  1.00  0.00     0.032 A 
ATOM     26  C   UNL     1      18.530  -4.667  -9.791  1.00  0.00     0.092 A 
ATOM     27  C   UNL     1      20.212  -4.447 -11.520  1.00  0.00     0.092 A 
ATOM     28  C   UNL     1      17.612  -3.964 -10.591  1.00  0.00     0.141 A 
ATOM     29  C   UNL     1      19.299  -3.733 -12.324  1.00  0.00     0.141 A 
ATOM     30  C   UNL     1      18.006  -3.494 -11.849  1.00  0.00     0.096 A 
ATOM     31  Cl  UNL     1      18.029  -5.206  -8.211  1.00  0.00    -0.080 Cl
ATOM     32  Cl  UNL     1      21.825  -4.712 -12.117  1.00  0.00    -0.080 Cl
BRANCH  28  33
ATOM     33  O   UNL     1      16.367  -3.731 -10.060  1.00  0.00    -0.495 OA
ATOM     34  C   UNL     1      15.414  -3.099 -10.907  1.00  0.00     0.278 C 
ENDBRANCH  28  33
BRANCH  29  35
ATOM     35  O   UNL     1      19.762  -3.296 -13.541  1.00  0.00    -0.495 OA
ATOM     36  C   UNL     1      19.263  -2.065 -14.047  1.00  0.00     0.278 C 
ENDBRANCH  29  35
ENDBRANCH  18  25
BRANCH  22  37
ATOM     37  N   UNL     1      24.710  -8.119  -5.114  1.00  0.00    -0.357 N 
ATOM     38  C   UNL     1      25.739  -7.422  -4.374  1.00  0.00     0.143 C 
ATOM     39  H   UNL     1      25.026  -8.909  -5.664  1.00  0.00     0.163 HD
ENDBRANCH  22  37
ENDBRANCH   1  14
TORSDOF 9
ENDMDL
MODEL 4
REMARK VINA RESULT:      -6.6     14.936     17.825
REMARK SMILES C=CC(=O)N1CCN(CCCn2c(=O)c(-c3c(Cl)c(OC)cc(OC)c3Cl)cc3cnc(NC)nc32)CC1
REMARK SMILES IDX 11 1 10 2 9 3 8 4 3 5 4 6 5 7 6 8 38 9 7 10 37 11 2 12 1 13
REMARK SMILES IDX 12 14 13 15 36 16 14 17 15 18 35 19 29 20 28 21 32 22 30 23
REMARK SMILES IDX 31 24 16 25 17 26 26 27 19 28 23 29 22 30 18 31 27 32 20 33
REMARK SMILES IDX 21 34 24 35 25 36 33 37 34 38
REMARK H PARENT 33 39
ROOT
ATOM      1  C   UNL     1      14.846  10.262 -18.734  1.00  0.00     0.129 C 
ENDROOT
BRANCH   1   2
ATOM      2  C   UNL     1      15.802  10.691 -17.612  1.00  0.00     0.038 C 
BRANCH   2   3
ATOM      3  C   UNL     1      15.131  11.003 -16.267  1.00  0.00     0.086 C 
BRANCH   3   4
ATOM      4  N   UNL     1      15.340   9.979 -15.231  1.00  0.00    -0.300 NA
ATOM      5  C   UNL     1      13.670  11.634 -11.577  1.00  0.00     0.246 C 
ATOM      6  O   UNL     1      14.357  12.270 -10.782  1.00  0.00    -0.270 OA
ATOM      7  N   UNL     1      14.151  11.081 -12.752  1.00  0.00    -0.337 N 
ATOM      8  C   UNL     1      15.496  11.476 -13.175  1.00  0.00     0.135 C 
ATOM      9  C   UNL     1      13.300  10.491 -13.794  1.00  0.00     0.135 C 
ATOM     10  C   UNL     1      16.170  10.443 -14.097  1.00  0.00     0.106 C 
ATOM     11  C   UNL     1      14.056   9.490 -14.687  1.00  0.00     0.106 C 
BRANCH   5  12
ATOM     12  C   UNL     1      12.244  11.406 -11.257  1.00  0.00     0.063 C 
ATOM     13  C   UNL     1      11.441  12.437 -10.966  1.00  0.00     0.014 C 
ENDBRANCH   5  12
ENDBRANCH   3   4
ENDBRANCH   2   3
ENDBRANCH   1   2
BRANCH   1  14
ATOM     14  N   UNL     1      14.962   8.876 -19.168  1.00  0.00    -0.292 N 
ATOM     15  C   UNL     1      15.934   8.538 -20.101  1.00  0.00     0.260 A 
ATOM     16  C   UNL     1      14.028   7.930 -18.673  1.00  0.00     0.148 A 
ATOM     17  O   UNL     1      16.722   9.348 -20.593  1.00  0.00    -0.269 OA
ATOM     18  C   UNL     1      16.036   7.092 -20.498  1.00  0.00     0.051 A 
ATOM     19  N   UNL     1      13.095   8.334 -17.784  1.00  0.00    -0.195 NA
ATOM     20  C   UNL     1      14.105   6.625 -19.125  1.00  0.00     0.037 A 
ATOM     21  C   UNL     1      15.151   6.195 -20.038  1.00  0.00     0.028 A 
ATOM     22  C   UNL     1      12.214   7.427 -17.349  1.00  0.00     0.224 A 
ATOM     23  C   UNL     1      13.148   5.775 -18.625  1.00  0.00     0.127 A 
ATOM     24  N   UNL     1      12.196   6.151 -17.752  1.00  0.00    -0.221 NA
BRANCH  18  25
ATOM     25  C   UNL     1      17.158   6.651 -21.357  1.00  0.00     0.032 A 
ATOM     26  C   UNL     1      17.000   6.603 -22.757  1.00  0.00     0.092 A 
ATOM     27  C   UNL     1      18.392   6.251 -20.805  1.00  0.00     0.092 A 
ATOM     28  C   UNL     1      18.042   6.148 -23.584  1.00  0.00     0.141 A 
ATOM     29  C   UNL     1      19.444   5.803 -21.630  1.00  0.00     0.141 A 
ATOM     30  C   UNL     1      19.260   5.759 -23.016  1.00  0.00     0.096 A 
ATOM     31  Cl  UNL     1      15.507   7.121 -23.492  1.00  0.00    -0.080 Cl
ATOM     32  Cl  UNL     1      18.648   6.324 -19.085  1.00  0.00    -0.080 Cl
BRANCH  28  33
ATOM     33  O   UNL     1      17.816   6.156 -24.938  1.00  0.00    -0.495 OA
ATOM     34  C   UNL     1      18.753   6.864 -25.743  1.00  0.00     0.278 C 
ENDBRANCH  28  33
BRANCH  29  35
ATOM     35  O   UNL     1      20.611   5.448 -21.000  1.00  0.00    -0.495 OA
ATOM     36  C   UNL     1      21.642   4.857 -21.779  1.00  0.00     0.278 C 
ENDBRANCH  29  35
ENDBRANCH  18  25
BRANCH  22  37
ATOM     37  N   UNL     1      11.284   7.889 -16.429  1.00  0.00    -0.357 N 
ATOM     38  C   UNL     1      10.020   8.294 -17.001  1.00  0.00     0.143 C 
ATOM     39  H   UNL     1      11.758   8.591 -15.874  1.00  0.00     0.163 HD
ENDBRANCH  22  37
ENDBRANCH   1  14
TORSDOF 9
ENDMDL
MODEL 5
REMARK VINA RESULT:      -6.5     18.429     22.702
REMARK SMILES C=CC(=O)N1CCN(CCCn2c(=O)c(-c3c(Cl)c(OC)cc(OC)c3Cl)cc3cnc(NC)nc32)CC1
REMARK SMILES IDX 11 1 10 2 9 3 8 4 3 5 4 6 5 7 6 8 38 9 7 10 37 11 2 12 1 13
REMARK SMILES IDX 12 14 13 15 36 16 14 17 15 18 35 19 29 20 28 21 32 22 30 23
REMARK SMILES IDX 31 24 16 25 17 26 26 27 19 28 23 29 22 30 18 31 27 32 20 33
REMARK SMILES IDX 21 34 24 35 25 36 33 37 34 38
REMARK H PARENT 33 39
ROOT
ATOM      1  C   UNL     1      37.358  -6.359   1.413  1.00  0.00     0.129 C 
ENDROOT
BRANCH   1   2
ATOM      2  C   UNL     1      36.576  -6.705   2.688  1.00  0.00     0.038 C 
BRANCH   2   3
ATOM      3  C   UNL     1      35.932  -8.098   2.700  1.00  0.00     0.086 C 
BRANCH   3   4
ATOM      4  N   UNL     1      34.476  -8.094   2.916  1.00  0.00    -0.300 NA
ATOM      5  C   UNL     1      33.601 -11.707   5.164  1.00  0.00     0.246 C 
ATOM      6  O   UNL     1      33.297 -12.758   4.607  1.00  0.00    -0.270 OA
ATOM      7  N   UNL     1      33.884 -10.526   4.499  1.00  0.00    -0.337 N 
ATOM      8  C   UNL     1      34.055 -10.603   3.046  1.00  0.00     0.135 C 
ATOM      9  C   UNL     1      34.433  -9.326   5.144  1.00  0.00     0.135 C 
ATOM     10  C   UNL     1      33.786  -9.265   2.332  1.00  0.00     0.106 C 
ATOM     11  C   UNL     1      34.143  -8.036   4.355  1.00  0.00     0.106 C 
BRANCH   5  12
ATOM     12  C   UNL     1      33.636 -11.674   6.643  1.00  0.00     0.063 C 
ATOM     13  C   UNL     1      33.495 -12.802   7.350  1.00  0.00     0.014 C 
ENDBRANCH   5  12
ENDBRANCH   3   4
ENDBRANCH   2   3
ENDBRANCH   1   2
BRANCH   1  14
ATOM     14  N   UNL     1      37.298  -4.964   0.993  1.00  0.00    -0.292 N 
ATOM     15  C   UNL     1      38.029  -4.015   1.695  1.00  0.00     0.260 A 
ATOM     16  C   UNL     1      36.435  -4.615  -0.078  1.00  0.00     0.148 A 
ATOM     17  O   UNL     1      38.741  -4.279   2.665  1.00  0.00    -0.269 OA
ATOM     18  C   UNL     1      37.959  -2.594   1.210  1.00  0.00     0.051 A 
ATOM     19  N   UNL     1      35.737  -5.589  -0.702  1.00  0.00    -0.195 NA
ATOM     20  C   UNL     1      36.338  -3.285  -0.441  1.00  0.00     0.037 A 
ATOM     21  C   UNL     1      37.139  -2.258   0.202  1.00  0.00     0.028 A 
ATOM     22  C   UNL     1      34.916  -5.230  -1.693  1.00  0.00     0.224 A 
ATOM     23  C   UNL     1      35.460  -3.020  -1.465  1.00  0.00     0.127 A 
ATOM     24  N   UNL     1      34.738  -3.965  -2.095  1.00  0.00    -0.221 NA
BRANCH  18  25
ATOM     25  C   UNL     1      38.845  -1.574   1.814  1.00  0.00     0.032 A 
ATOM     26  C   UNL     1      38.439  -0.880   2.971  1.00  0.00     0.092 A 
ATOM     27  C   UNL     1      40.096  -1.259   1.245  1.00  0.00     0.092 A 
ATOM     28  C   UNL     1      39.251   0.120   3.535  1.00  0.00     0.141 A 
ATOM     29  C   UNL     1      40.919  -0.263   1.811  1.00  0.00     0.141 A 
ATOM     30  C   UNL     1      40.490   0.415   2.956  1.00  0.00     0.096 A 
ATOM     31  Cl  UNL     1      36.918  -1.259   3.735  1.00  0.00    -0.080 Cl
ATOM     32  Cl  UNL     1      40.658  -2.111  -0.164  1.00  0.00    -0.080 Cl
BRANCH  28  33
ATOM     33  O   UNL     1      38.793   0.731   4.676  1.00  0.00    -0.495 OA
ATOM     34  C   UNL     1      38.274   2.049   4.537  1.00  0.00     0.278 C 
ENDBRANCH  28  33
BRANCH  29  35
ATOM     35  O   UNL     1      42.124  -0.037   1.192  1.00  0.00    -0.495 OA
ATOM     36  C   UNL     1      42.638   1.287   1.184  1.00  0.00     0.278 C 
ENDBRANCH  29  35
ENDBRANCH  18  25
BRANCH  22  37
ATOM     37  N   UNL     1      34.231  -6.267  -2.308  1.00  0.00    -0.357 N 
ATOM     38  C   UNL     1      34.096  -7.461  -1.505  1.00  0.00     0.143 C 
ATOM     39  H   UNL     1      34.664  -6.397  -3.215  1.00  0.00     0.163 HD
ENDBRANCH  22  37
ENDBRANCH   1  14
TORSDOF 9
ENDMDL
MODEL 6
REMARK VINA RESULT:      -6.4     18.297     22.559
REMARK SMILES C=CC(=O)N1CCN(CCCn2c(=O)c(-c3c(Cl)c(OC)cc(OC)c3Cl)cc3cnc(NC)nc32)CC1
REMARK SMILES IDX 11 1 10 2 9 3 8 4 3 5 4 6 5 7 6 8 38 9 7 10 37 11 2 12 1 13
REMARK SMILES IDX 12 14 13 15 36 16 14 17 15 18 35 19 29 20 28 21 32 22 30 23
REMARK SMILES IDX 31 24 16 25 17 26 26 27 19 28 23 29 22 30 18 31 27 32 20 33
REMARK SMILES IDX 21 34 24 35 25 36 33 37 34 38
REMARK H PARENT 33 39
ROOT
ATOM      1  C   UNL     1      37.338  -6.465   1.479  1.00  0.00     0.129 C 
ENDROOT
BRANCH   1   2
ATOM      2  C   UNL     1      36.461  -6.829   2.685  1.00  0.00     0.038 C 
BRANCH   2   3
ATOM      3  C   UNL     1      35.757  -8.191   2.594  1.00  0.00     0.086 C 
BRANCH   3   4
ATOM      4  N   UNL     1      34.342  -8.173   2.998  1.00  0.00    -0.300 NA
ATOM      5  C   UNL     1      33.706 -11.839   5.241  1.00  0.00     0.246 C 
ATOM      6  O   UNL     1      33.314 -12.869   4.699  1.00  0.00    -0.270 OA
ATOM      7  N   UNL     1      33.920 -10.643   4.577  1.00  0.00    -0.337 N 
ATOM      8  C   UNL     1      33.899 -10.679   3.113  1.00  0.00     0.135 C 
ATOM      9  C   UNL     1      34.568  -9.470   5.178  1.00  0.00     0.135 C 
ATOM     10  C   UNL     1      33.562  -9.317   2.478  1.00  0.00     0.106 C 
ATOM     11  C   UNL     1      34.200  -8.154   4.469  1.00  0.00     0.106 C 
BRANCH   5  12
ATOM     12  C   UNL     1      33.933 -11.850   6.703  1.00  0.00     0.063 C 
ATOM     13  C   UNL     1      33.377 -12.798   7.469  1.00  0.00     0.014 C 
ENDBRANCH   5  12
ENDBRANCH   3   4
ENDBRANCH   2   3
ENDBRANCH   1   2
BRANCH   1  14
ATOM     14  N   UNL     1      37.249  -5.082   1.027  1.00  0.00    -0.292 N 
ATOM     15  C   UNL     1      37.957  -4.101   1.710  1.00  0.00     0.260 A 
ATOM     16  C   UNL     1      36.384  -4.777  -0.055  1.00  0.00     0.148 A 
ATOM     17  O   UNL     1      38.670  -4.327   2.688  1.00  0.00    -0.269 OA
ATOM     18  C   UNL     1      37.859  -2.694   1.191  1.00  0.00     0.051 A 
ATOM     19  N   UNL     1      35.710  -5.779  -0.658  1.00  0.00    -0.195 NA
ATOM     20  C   UNL     1      36.260  -3.457  -0.449  1.00  0.00     0.037 A 
ATOM     21  C   UNL     1      37.036  -2.399   0.173  1.00  0.00     0.028 A 
ATOM     22  C   UNL     1      34.886  -5.462  -1.661  1.00  0.00     0.224 A 
ATOM     23  C   UNL     1      35.380  -3.235  -1.483  1.00  0.00     0.127 A 
ATOM     24  N   UNL     1      34.682  -4.211  -2.093  1.00  0.00    -0.221 NA
BRANCH  18  25
ATOM     25  C   UNL     1      38.720  -1.642   1.775  1.00  0.00     0.032 A 
ATOM     26  C   UNL     1      39.965  -1.340   1.187  1.00  0.00     0.092 A 
ATOM     27  C   UNL     1      38.333  -0.934   2.931  1.00  0.00     0.092 A 
ATOM     28  C   UNL     1      40.813  -0.370   1.752  1.00  0.00     0.141 A 
ATOM     29  C   UNL     1      39.175   0.046   3.497  1.00  0.00     0.141 A 
ATOM     30  C   UNL     1      40.408   0.322   2.898  1.00  0.00     0.096 A 
ATOM     31  Cl  UNL     1      40.474  -2.160  -0.265  1.00  0.00    -0.080 Cl
ATOM     32  Cl  UNL     1      36.791  -1.245   3.674  1.00  0.00    -0.080 Cl
BRANCH  28  33
ATOM     33  O   UNL     1      41.997  -0.119   1.104  1.00  0.00    -0.495 OA
ATOM     34  C   UNL     1      42.464   1.225   1.114  1.00  0.00     0.278 C 
ENDBRANCH  28  33
BRANCH  29  35
ATOM     35  O   UNL     1      38.704   0.690   4.615  1.00  0.00    -0.495 OA
ATOM     36  C   UNL     1      38.196   2.008   4.467  1.00  0.00     0.278 C 
ENDBRANCH  29  35
ENDBRANCH  18  25
BRANCH  22  37
ATOM     37  N   UNL     1      34.225  -6.527  -2.254  1.00  0.00    -0.357 N 
ATOM     38  C   UNL     1      34.967  -7.189  -3.304  1.00  0.00     0.143 C 
ATOM     39  H   UNL     1      33.309  -6.184  -2.516  1.00  0.00     0.163 HD
ENDBRANCH  22  37
ENDBRANCH   1  14
TORSDOF 9
ENDMDL
MODEL 7
REMARK VINA RESULT:      -6.4      7.415     10.194
REMARK SMILES C=CC(=O)N1CCN(CCCn2c(=O)c(-c3c(Cl)c(OC)cc(OC)c3Cl)cc3cnc(NC)nc32)CC1
REMARK SMILES IDX 11 1 10 2 9 3 8 4 3 5 4 6 5 7 6 8 38 9 7 10 37 11 2 12 1 13
REMARK SMILES IDX 12 14 13 15 36 16 14 17 15 18 35 19 29 20 28 21 32 22 30 23
REMARK SMILES IDX 31 24 16 25 17 26 26 27 19 28 23 29 22 30 18 31 27 32 20 33
REMARK SMILES IDX 21 34 24 35 25 36 33 37 34 38
REMARK H PARENT 33 39
ROOT
ATOM      1  C   UNL     1      18.039  -7.762  -4.718  1.00  0.00     0.129 C 
ENDROOT
BRANCH   1   2
ATOM      2  C   UNL     1      19.566  -7.607  -4.753  1.00  0.00     0.038 C 
BRANCH   2   3
ATOM      3  C   UNL     1      20.208  -7.779  -6.137  1.00  0.00     0.086 C 
BRANCH   3   4
ATOM      4  N   UNL     1      20.897  -6.580  -6.642  1.00  0.00    -0.300 NA
ATOM      5  C   UNL     1      18.740  -5.393 -10.221  1.00  0.00     0.246 C 
ATOM      6  O   UNL     1      19.070  -5.788 -11.336  1.00  0.00    -0.270 OA
ATOM      7  N   UNL     1      19.394  -5.735  -9.049  1.00  0.00    -0.337 N 
ATOM      8  C   UNL     1      20.387  -6.808  -9.127  1.00  0.00     0.135 C 
ATOM      9  C   UNL     1      18.891  -5.426  -7.704  1.00  0.00     0.135 C 
ATOM     10  C   UNL     1      21.442  -6.740  -8.007  1.00  0.00     0.106 C 
ATOM     11  C   UNL     1      20.004  -5.403  -6.640  1.00  0.00     0.106 C 
BRANCH   5  12
ATOM     12  C   UNL     1      17.594  -4.464 -10.110  1.00  0.00     0.063 C 
ATOM     13  C   UNL     1      17.134  -3.822 -11.191  1.00  0.00     0.014 C 
ENDBRANCH   5  12
ENDBRANCH   3   4
ENDBRANCH   2   3
ENDBRANCH   1   2
BRANCH   1  14
ATOM     14  N   UNL     1      17.525  -8.754  -3.783  1.00  0.00    -0.292 N 
ATOM     15  C   UNL     1      17.144  -8.350  -2.510  1.00  0.00     0.260 A 
ATOM     16  C   UNL     1      17.500 -10.115  -4.184  1.00  0.00     0.148 A 
ATOM     17  O   UNL     1      17.210  -7.186  -2.113  1.00  0.00    -0.269 OA
ATOM     18  C   UNL     1      16.594  -9.402  -1.589  1.00  0.00     0.051 A 
ATOM     19  N   UNL     1      17.906 -10.439  -5.431  1.00  0.00    -0.195 NA
ATOM     20  C   UNL     1      17.062 -11.063  -3.278  1.00  0.00     0.037 A 
ATOM     21  C   UNL     1      16.574 -10.691  -1.961  1.00  0.00     0.028 A 
ATOM     22  C   UNL     1      17.891 -11.729  -5.776  1.00  0.00     0.224 A 
ATOM     23  C   UNL     1      17.095 -12.362  -3.727  1.00  0.00     0.127 A 
ATOM     24  N   UNL     1      17.510 -12.717  -4.957  1.00  0.00    -0.221 NA
BRANCH  18  25
ATOM     25  C   UNL     1      16.019  -9.000  -0.286  1.00  0.00     0.032 A 
ATOM     26  C   UNL     1      16.795  -9.088   0.888  1.00  0.00     0.092 A 
ATOM     27  C   UNL     1      14.690  -8.544  -0.180  1.00  0.00     0.092 A 
ATOM     28  C   UNL     1      16.251  -8.748   2.139  1.00  0.00     0.141 A 
ATOM     29  C   UNL     1      14.141  -8.192   1.071  1.00  0.00     0.141 A 
ATOM     30  C   UNL     1      14.931  -8.293   2.221  1.00  0.00     0.096 A 
ATOM     31  Cl  UNL     1      18.456  -9.611   0.806  1.00  0.00    -0.080 Cl
ATOM     32  Cl  UNL     1      13.701  -8.385  -1.602  1.00  0.00    -0.080 Cl
BRANCH  28  33
ATOM     33  O   UNL     1      17.082  -8.837   3.228  1.00  0.00    -0.495 OA
ATOM     34  C   UNL     1      16.929  -7.845   4.238  1.00  0.00     0.278 C 
ENDBRANCH  28  33
BRANCH  29  35
ATOM     35  O   UNL     1      12.842  -7.746   1.070  1.00  0.00    -0.495 OA
ATOM     36  C   UNL     1      11.835  -8.609   1.579  1.00  0.00     0.278 C 
ENDBRANCH  29  35
ENDBRANCH  18  25
BRANCH  22  37
ATOM     37  N   UNL     1      18.307 -12.008  -7.070  1.00  0.00    -0.357 N 
ATOM     38  C   UNL     1      19.468 -11.265  -7.504  1.00  0.00     0.143 C 
ATOM     39  H   UNL     1      17.486 -11.920  -7.658  1.00  0.00     0.163 HD
ENDBRANCH  22  37
ENDBRANCH   1  14
TORSDOF 9
ENDMDL
MODEL 8
REMARK VINA RESULT:      -6.2      7.444      9.996
REMARK SMILES C=CC(=O)N1CCN(CCCn2c(=O)c(-c3c(Cl)c(OC)cc(OC)c3Cl)cc3cnc(NC)nc32)CC1
REMARK SMILES IDX 11 1 10 2 9 3 8 4 3 5 4 6 5 7 6 8 38 9 7 10 37 11 2 12 1 13
REMARK SMILES IDX 12 14 13 15 36 16 14 17 15 18 35 19 29 20 28 21 32 22 30 23
REMARK SMILES IDX 31 24 16 25 17 26 26 27 19 28 23 29 22 30 18 31 27 32 20 33
REMARK SMILES IDX 21 34 24 35 25 36 33 37 34 38
REMARK H PARENT 33 39
ROOT
ATOM      1  C   UNL     1      18.706  -7.582  -4.348  1.00  0.00     0.129 C 
ENDROOT
BRANCH   1   2
ATOM      2  C   UNL     1      20.199  -7.643  -3.996  1.00  0.00     0.038 C 
BRANCH   2   3
ATOM      3  C   UNL     1      21.139  -7.915  -5.179  1.00  0.00     0.086 C 
BRANCH   3   4
ATOM      4  N   UNL     1      21.067  -6.915  -6.256  1.00  0.00    -0.300 NA
ATOM      5  C   UNL     1      24.941  -7.008  -8.220  1.00  0.00     0.246 C 
ATOM      6  O   UNL     1      25.856  -6.262  -7.882  1.00  0.00    -0.270 OA
ATOM      7  N   UNL     1      23.687  -7.018  -7.633  1.00  0.00    -0.337 N 
ATOM      8  C   UNL     1      23.523  -6.255  -6.394  1.00  0.00     0.135 C 
ATOM      9  C   UNL     1      22.660  -8.033  -7.899  1.00  0.00     0.135 C 
ATOM     10  C   UNL     1      22.067  -5.832  -6.129  1.00  0.00     0.106 C 
ATOM     11  C   UNL     1      21.235  -7.540  -7.585  1.00  0.00     0.106 C 
BRANCH   5  12
ATOM     12  C   UNL     1      25.167  -7.940  -9.347  1.00  0.00     0.063 C 
ATOM     13  C   UNL     1      24.835  -7.587 -10.595  1.00  0.00     0.014 C 
ENDBRANCH   5  12
ENDBRANCH   3   4
ENDBRANCH   2   3
ENDBRANCH   1   2
BRANCH   1  14
ATOM     14  N   UNL     1      17.838  -8.461  -3.577  1.00  0.00    -0.292 N 
ATOM     15  C   UNL     1      17.343  -8.022  -2.356  1.00  0.00     0.260 A 
ATOM     16  C   UNL     1      17.585  -9.768  -4.070  1.00  0.00     0.148 A 
ATOM     17  O   UNL     1      17.592  -6.916  -1.874  1.00  0.00    -0.269 OA
ATOM     18  C   UNL     1      16.429  -8.951  -1.608  1.00  0.00     0.051 A 
ATOM     19  N   UNL     1      18.117 -10.135  -5.256  1.00  0.00    -0.195 NA
ATOM     20  C   UNL     1      16.804 -10.621  -3.312  1.00  0.00     0.037 A 
ATOM     21  C   UNL     1      16.192 -10.190  -2.066  1.00  0.00     0.028 A 
ATOM     22  C   UNL     1      17.880 -11.377  -5.687  1.00  0.00     0.224 A 
ATOM     23  C   UNL     1      16.629 -11.878  -3.838  1.00  0.00     0.127 A 
ATOM     24  N   UNL     1      17.160 -12.279  -5.009  1.00  0.00    -0.221 NA
BRANCH  18  25
ATOM     25  C   UNL     1      15.742  -8.471  -0.388  1.00  0.00     0.032 A 
ATOM     26  C   UNL     1      16.223  -8.838   0.886  1.00  0.00     0.092 A 
ATOM     27  C   UNL     1      14.592  -7.660  -0.464  1.00  0.00     0.092 A 
ATOM     28  C   UNL     1      15.559  -8.423   2.054  1.00  0.00     0.141 A 
ATOM     29  C   UNL     1      13.927  -7.233   0.704  1.00  0.00     0.141 A 
ATOM     30  C   UNL     1      14.420  -7.616   1.955  1.00  0.00     0.096 A 
ATOM     31  Cl  UNL     1      17.664  -9.808   1.035  1.00  0.00    -0.080 Cl
ATOM     32  Cl  UNL     1      13.978  -7.152  -2.011  1.00  0.00    -0.080 Cl
BRANCH  28  33
ATOM     33  O   UNL     1      16.107  -8.803   3.254  1.00  0.00    -0.495 OA
ATOM     34  C   UNL     1      16.525  -7.761   4.130  1.00  0.00     0.278 C 
ENDBRANCH  28  33
BRANCH  29  35
ATOM     35  O   UNL     1      12.822  -6.436   0.527  1.00  0.00    -0.495 OA
ATOM     36  C   UNL     1      11.539  -7.013   0.721  1.00  0.00     0.278 C 
ENDBRANCH  29  35
ENDBRANCH  18  25
BRANCH  22  37
ATOM     37  N   UNL     1      18.439 -11.702  -6.914  1.00  0.00    -0.357 N 
ATOM     38  C   UNL     1      19.881 -11.615  -6.963  1.00  0.00     0.143 C 
ATOM     39  H   UNL     1      17.944 -11.152  -7.607  1.00  0.00     0.163 HD
ENDBRANCH  22  37
ENDBRANCH   1  14
TORSDOF 9
ENDMDL
MODEL 9
REMARK VINA RESULT:      -6.1     21.482     23.697
REMARK SMILES C=CC(=O)N1CCN(CCCn2c(=O)c(-c3c(Cl)c(OC)cc(OC)c3Cl)cc3cnc(NC)nc32)CC1
REMARK SMILES IDX 11 1 10 2 9 3 8 4 3 5 4 6 5 7 6 8 38 9 7 10 37 11 2 12 1 13
REMARK SMILES IDX 12 14 13 15 36 16 14 17 15 18 35 19 29 20 28 21 32 22 30 23
REMARK SMILES IDX 31 24 16 25 17 26 26 27 19 28 23 29 22 30 18 31 27 32 20 33
REMARK SMILES IDX 21 34 24 35 25 36 33 37 34 38
REMARK H PARENT 33 39
ROOT
ATOM      1  C   UNL     1      21.857  16.268  -7.576  1.00  0.00     0.129 C 
ENDROOT
BRANCH   1   2
ATOM      2  C   UNL     1      22.339  16.589  -8.998  1.00  0.00     0.038 C 
BRANCH   2   3
ATOM      3  C   UNL     1      23.507  15.729  -9.501  1.00  0.00     0.086 C 
BRANCH   3   4
ATOM      4  N   UNL     1      24.692  15.742  -8.629  1.00  0.00    -0.300 NA
ATOM      5  C   UNL     1      27.691  13.351 -10.671  1.00  0.00     0.246 C 
ATOM      6  O   UNL     1      27.815  12.148 -10.457  1.00  0.00    -0.270 OA
ATOM      7  N   UNL     1      26.758  14.161 -10.046  1.00  0.00    -0.337 N 
ATOM      8  C   UNL     1      25.714  13.496  -9.262  1.00  0.00     0.135 C 
ATOM      9  C   UNL     1      26.477  15.549 -10.436  1.00  0.00     0.135 C 
ATOM     10  C   UNL     1      25.108  14.398  -8.171  1.00  0.00     0.106 C 
ATOM     11  C   UNL     1      25.848  16.375  -9.298  1.00  0.00     0.106 C 
BRANCH   5  12
ATOM     12  C   UNL     1      28.614  13.999 -11.629  1.00  0.00     0.063 C 
ATOM     13  C   UNL     1      29.632  13.311 -12.161  1.00  0.00     0.014 C 
ENDBRANCH   5  12
ENDBRANCH   3   4
ENDBRANCH   2   3
ENDBRANCH   1   2
BRANCH   1  14
ATOM     14  N   UNL     1      21.025  17.285  -6.946  1.00  0.00    -0.292 N 
ATOM     15  C   UNL     1      21.628  18.421  -6.420  1.00  0.00     0.260 A 
ATOM     16  C   UNL     1      19.632  17.045  -6.828  1.00  0.00     0.148 A 
ATOM     17  O   UNL     1      22.842  18.630  -6.455  1.00  0.00    -0.269 OA
ATOM     18  C   UNL     1      20.729  19.457  -5.805  1.00  0.00     0.051 A 
ATOM     19  N   UNL     1      19.117  15.908  -7.344  1.00  0.00    -0.195 NA
ATOM     20  C   UNL     1      18.851  17.987  -6.183  1.00  0.00     0.037 A 
ATOM     21  C   UNL     1      19.412  19.231  -5.685  1.00  0.00     0.028 A 
ATOM     22  C   UNL     1      17.805  15.697  -7.201  1.00  0.00     0.224 A 
ATOM     23  C   UNL     1      17.517  17.670  -6.081  1.00  0.00     0.127 A 
ATOM     24  N   UNL     1      16.977  16.538  -6.569  1.00  0.00    -0.221 NA
BRANCH  18  25
ATOM     25  C   UNL     1      21.298  20.756  -5.383  1.00  0.00     0.032 A 
ATOM     26  C   UNL     1      21.646  21.723  -6.347  1.00  0.00     0.092 A 
ATOM     27  C   UNL     1      21.523  21.051  -4.023  1.00  0.00     0.092 A 
ATOM     28  C   UNL     1      22.224  22.947  -5.965  1.00  0.00     0.141 A 
ATOM     29  C   UNL     1      22.094  22.280  -3.632  1.00  0.00     0.141 A 
ATOM     30  C   UNL     1      22.436  23.220  -4.609  1.00  0.00     0.096 A 
ATOM     31  Cl  UNL     1      21.354  21.423  -8.039  1.00  0.00    -0.080 Cl
ATOM     32  Cl  UNL     1      21.080  19.904  -2.792  1.00  0.00    -0.080 Cl
BRANCH  28  33
ATOM     33  O   UNL     1      22.511  23.844  -6.964  1.00  0.00    -0.495 OA
ATOM     34  C   UNL     1      23.880  23.995  -7.321  1.00  0.00     0.278 C 
ENDBRANCH  28  33
BRANCH  29  35
ATOM     35  O   UNL     1      22.262  22.479  -2.284  1.00  0.00    -0.495 OA
ATOM     36  C   UNL     1      21.401  23.400  -1.628  1.00  0.00     0.278 C 
ENDBRANCH  29  35
ENDBRANCH  18  25
BRANCH  22  37
ATOM     37  N   UNL     1      17.324  14.521  -7.757  1.00  0.00    -0.357 N 
ATOM     38  C   UNL     1      17.948  14.143  -9.005  1.00  0.00     0.143 C 
ATOM     39  H   UNL     1      16.315  14.610  -7.782  1.00  0.00     0.163 HD
ENDBRANCH  22  37
ENDBRANCH   1  14
TORSDOF 9
ENDMDL
