MODEL 1
REMARK VINA RESULT:      -7.8      0.000      0.000
REMARK SMILES CCN(OCCN1CCNCC1)C(=O)c1ccc(N/C(=C2\C(=O)Nc3cc(C(=O)OC)c(C)cc32)c2ccccc2)cc1
REMARK SMILES IDX 13 1 14 2 3 3 2 4 1 5 4 6 5 7 6 8 7 9 8 10 12 11 9 12 11 13
REMARK SMILES IDX 10 14 15 16 16 17 43 18 17 19 42 20 18 21 19 22 20 24 21 25
REMARK SMILES IDX 22 26 35 27 23 28 24 29 34 30 25 31 32 32 26 33 27 34 33 36
REMARK SMILES IDX 36 37 37 38 41 39 38 40 40 41 39 42 28 43 29 44 30 45 31 46
REMARK H PARENT 10 15 19 23 24 35
ROOT
ATOM      1  C   UNL     1      28.935   0.338 -13.507  1.00  0.00     0.277 C 
ATOM      2  O   UNL     1      28.850   0.878 -12.405  1.00  0.00    -0.267 OA
ENDROOT
BRANCH   1   3
ATOM      3  N   UNL     1      30.058   0.373 -14.321  1.00  0.00    -0.218 N 
BRANCH   3   4
ATOM      4  C   UNL     1      30.416   1.340 -15.356  1.00  0.00     0.150 C 
ATOM      5  C   UNL     1      29.571   2.606 -15.312  1.00  0.00     0.030 C 
ENDBRANCH   3   4
BRANCH   3   6
ATOM      6  O   UNL     1      31.210  -0.176 -13.699  1.00  0.00    -0.269 OA
BRANCH   6   7
ATOM      7  C   UNL     1      31.335  -1.555 -14.064  1.00  0.00     0.209 C 
BRANCH   7   8
ATOM      8  C   UNL     1      31.144  -2.473 -12.841  1.00  0.00     0.116 C 
BRANCH   8   9
ATOM      9  N   UNL     1      31.139  -3.935 -13.024  1.00  0.00    -0.298 NA
ATOM     10  C   UNL     1      31.718  -4.687 -11.901  1.00  0.00     0.100 C 
ATOM     11  C   UNL     1      29.808  -4.461 -13.384  1.00  0.00     0.100 C 
ATOM     12  C   UNL     1      31.732  -6.209 -12.183  1.00  0.00     0.096 C 
ATOM     13  C   UNL     1      29.837  -5.988 -13.627  1.00  0.00     0.096 C 
ATOM     14  N   UNL     1      30.393  -6.748 -12.488  1.00  0.00    -0.314 NA
ATOM     15  H   UNL     1      29.796  -6.566 -11.682  1.00  0.00     0.122 HD
ENDBRANCH   8   9
ENDBRANCH   7   8
ENDBRANCH   6   7
ENDBRANCH   3   6
ENDBRANCH   1   3
BRANCH   1  16
ATOM     16  C   UNL     1      27.811  -0.511 -13.943  1.00  0.00     0.042 A 
ATOM     17  C   UNL     1      27.109  -0.233 -15.115  1.00  0.00     0.016 A 
ATOM     18  C   UNL     1      27.437  -1.584 -13.135  1.00  0.00     0.016 A 
ATOM     19  C   UNL     1      26.074  -1.084 -15.518  1.00  0.00     0.027 A 
ATOM     20  C   UNL     1      26.389  -2.418 -13.537  1.00  0.00     0.027 A 
ATOM     21  C   UNL     1      25.726  -2.210 -14.757  1.00  0.00     0.038 A 
BRANCH  21  22
ATOM     22  N   UNL     1      24.665  -3.091 -15.107  1.00  0.00    -0.354 N 
ATOM     23  H   UNL     1      24.505  -3.012 -16.110  1.00  0.00     0.167 HD
BRANCH  22  24
ATOM     24  C   UNL     1      23.455  -3.155 -14.420  1.00  0.00     0.059 C 
ATOM     25  C   UNL     1      22.303  -2.523 -14.738  1.00  0.00     0.073 C 
ATOM     26  C   UNL     1      22.192  -1.565 -15.908  1.00  0.00     0.258 C 
ATOM     27  C   UNL     1      20.975  -2.534 -14.086  1.00  0.00     0.013 A 
ATOM     28  O   UNL     1      23.027  -1.231 -16.724  1.00  0.00    -0.269 OA
ATOM     29  N   UNL     1      20.887  -1.099 -15.869  1.00  0.00    -0.321 N 
ATOM     30  C   UNL     1      20.425  -3.209 -13.008  1.00  0.00     0.015 A 
ATOM     31  C   UNL     1      20.174  -1.651 -14.813  1.00  0.00     0.050 A 
ATOM     32  C   UNL     1      19.083  -2.964 -12.638  1.00  0.00    -0.036 A 
ATOM     33  C   UNL     1      18.854  -1.393 -14.503  1.00  0.00     0.042 A 
ATOM     34  C   UNL     1      18.295  -2.053 -13.395  1.00  0.00     0.065 A 
ATOM     35  H   UNL     1      20.539  -0.432 -16.539  1.00  0.00     0.170 HD
ATOM     36  C   UNL     1      18.538  -3.700 -11.439  1.00  0.00     0.045 C 
BRANCH  24  37
ATOM     37  C   UNL     1      23.554  -3.944 -13.172  1.00  0.00    -0.001 A 
ATOM     38  C   UNL     1      23.856  -5.313 -13.227  1.00  0.00     0.010 A 
ATOM     39  C   UNL     1      23.385  -3.325 -11.922  1.00  0.00     0.010 A 
ATOM     40  C   UNL     1      23.958  -6.058 -12.051  1.00  0.00     0.001 A 
ATOM     41  C   UNL     1      23.491  -4.075 -10.749  1.00  0.00     0.001 A 
ATOM     42  C   UNL     1      23.774  -5.440 -10.815  1.00  0.00     0.000 A 
ENDBRANCH  24  37
BRANCH  34  43
ATOM     43  C   UNL     1      16.865  -1.795 -13.041  1.00  0.00     0.338 C 
ATOM     44  O   UNL     1      16.343  -0.694 -13.023  1.00  0.00    -0.246 OA
BRANCH  43  45
ATOM     45  O   UNL     1      16.239  -2.971 -12.773  1.00  0.00    -0.465 OA
ATOM     46  C   UNL     1      14.962  -2.819 -12.153  1.00  0.00     0.282 C 
ENDBRANCH  43  45
ENDBRANCH  34  43
ENDBRANCH  22  24
ENDBRANCH  21  22
ENDBRANCH   1  16
TORSDOF 12
ENDMDL
MODEL 2
REMARK VINA RESULT:      -7.0     26.653     30.668
REMARK SMILES CCN(OCCN1CCNCC1)C(=O)c1ccc(N/C(=C2\C(=O)Nc3cc(C(=O)OC)c(C)cc32)c2ccccc2)cc1
REMARK SMILES IDX 13 1 14 2 3 3 2 4 1 5 4 6 5 7 6 8 7 9 8 10 12 11 9 12 11 13
REMARK SMILES IDX 10 14 15 16 16 17 43 18 17 19 42 20 18 21 19 22 20 24 21 25
REMARK SMILES IDX 22 26 35 27 23 28 24 29 34 30 25 31 32 32 26 33 27 34 33 36
REMARK SMILES IDX 36 37 37 38 41 39 38 40 40 41 39 42 28 43 29 44 30 45 31 46
REMARK H PARENT 10 15 19 23 24 35
ROOT
ATOM      1  C   UNL     1      36.369   0.338   9.602  1.00  0.00     0.277 C 
ATOM      2  O   UNL     1      35.468   1.113   9.285  1.00  0.00    -0.267 OA
ENDROOT
BRANCH   1   3
ATOM      3  N   UNL     1      37.620   0.290   9.004  1.00  0.00    -0.218 N 
BRANCH   3   4
ATOM      4  C   UNL     1      38.350  -0.865   8.487  1.00  0.00     0.150 C 
ATOM      5  C   UNL     1      39.394  -1.399   9.459  1.00  0.00     0.030 C 
ENDBRANCH   3   4
BRANCH   3   6
ATOM      6  O   UNL     1      37.935   1.472   8.282  1.00  0.00    -0.269 OA
BRANCH   6   7
ATOM      7  C   UNL     1      38.283   1.127   6.936  1.00  0.00     0.209 C 
BRANCH   7   8
ATOM      8  C   UNL     1      38.149   2.343   5.999  1.00  0.00     0.116 C 
BRANCH   8   9
ATOM      9  N   UNL     1      38.442   2.188   4.564  1.00  0.00    -0.298 NA
ATOM     10  C   UNL     1      37.564   1.238   3.866  1.00  0.00     0.100 C 
ATOM     11  C   UNL     1      38.500   3.479   3.850  1.00  0.00     0.100 C 
ATOM     12  C   UNL     1      37.962   1.082   2.378  1.00  0.00     0.096 C 
ATOM     13  C   UNL     1      38.864   3.298   2.358  1.00  0.00     0.096 C 
ATOM     14  N   UNL     1      37.964   2.364   1.648  1.00  0.00    -0.314 NA
ATOM     15  H   UNL     1      37.024   2.752   1.700  1.00  0.00     0.122 HD
ENDBRANCH   8   9
ENDBRANCH   7   8
ENDBRANCH   6   7
ENDBRANCH   3   6
ENDBRANCH   1   3
BRANCH   1  16
ATOM     16  C   UNL     1      36.153  -0.518  10.783  1.00  0.00     0.042 A 
ATOM     17  C   UNL     1      36.801  -0.260  11.990  1.00  0.00     0.016 A 
ATOM     18  C   UNL     1      35.310  -1.621  10.659  1.00  0.00     0.016 A 
ATOM     19  C   UNL     1      36.541  -1.070  13.101  1.00  0.00     0.027 A 
ATOM     20  C   UNL     1      35.070  -2.436  11.769  1.00  0.00     0.027 A 
ATOM     21  C   UNL     1      35.643  -2.143  13.018  1.00  0.00     0.038 A 
BRANCH  21  22
ATOM     22  N   UNL     1      35.364  -3.014  14.108  1.00  0.00    -0.354 N 
ATOM     23  H   UNL     1      34.534  -2.666  14.587  1.00  0.00     0.167 HD
BRANCH  22  24
ATOM     24  C   UNL     1      36.322  -3.435  15.027  1.00  0.00     0.059 C 
ATOM     25  C   UNL     1      36.580  -2.894  16.239  1.00  0.00     0.073 C 
ATOM     26  C   UNL     1      35.865  -1.661  16.754  1.00  0.00     0.258 C 
ATOM     27  C   UNL     1      37.559  -3.269  17.283  1.00  0.00     0.013 A 
ATOM     28  O   UNL     1      34.988  -0.997  16.240  1.00  0.00    -0.269 OA
ATOM     29  N   UNL     1      36.438  -1.402  17.990  1.00  0.00    -0.321 N 
ATOM     30  C   UNL     1      38.478  -4.296  17.432  1.00  0.00     0.015 A 
ATOM     31  C   UNL     1      37.425  -2.327  18.304  1.00  0.00     0.050 A 
ATOM     32  C   UNL     1      39.290  -4.349  18.588  1.00  0.00    -0.036 A 
ATOM     33  C   UNL     1      38.179  -2.347  19.460  1.00  0.00     0.042 A 
ATOM     34  C   UNL     1      39.133  -3.368  19.607  1.00  0.00     0.065 A 
ATOM     35  H   UNL     1      36.150  -0.621  18.557  1.00  0.00     0.170 HD
ATOM     36  C   UNL     1      40.296  -5.467  18.691  1.00  0.00     0.045 C 
BRANCH  24  37
ATOM     37  C   UNL     1      37.165  -4.532  14.503  1.00  0.00    -0.001 A 
ATOM     38  C   UNL     1      38.342  -4.241  13.798  1.00  0.00     0.010 A 
ATOM     39  C   UNL     1      36.816  -5.872  14.736  1.00  0.00     0.010 A 
ATOM     40  C   UNL     1      39.143  -5.273  13.309  1.00  0.00     0.001 A 
ATOM     41  C   UNL     1      37.623  -6.902  14.247  1.00  0.00     0.001 A 
ATOM     42  C   UNL     1      38.782  -6.601  13.532  1.00  0.00     0.000 A 
ENDBRANCH  24  37
BRANCH  34  43
ATOM     43  C   UNL     1      39.959  -3.415  20.853  1.00  0.00     0.338 C 
ATOM     44  O   UNL     1      41.148  -3.149  20.907  1.00  0.00    -0.246 OA
BRANCH  43  45
ATOM     45  O   UNL     1      39.180  -3.770  21.908  1.00  0.00    -0.465 OA
ATOM     46  C   UNL     1      39.246  -5.158  22.237  1.00  0.00     0.282 C 
ENDBRANCH  43  45
ENDBRANCH  34  43
ENDBRANCH  22  24
ENDBRANCH  21  22
ENDBRANCH   1  16
TORSDOF 12
ENDMDL
MODEL 3
REMARK VINA RESULT:      -6.9      1.576      2.180
REMARK SMILES CCN(OCCN1CCNCC1)C(=O)c1ccc(N/C(=C2\C(=O)Nc3cc(C(=O)OC)c(C)cc32)c2ccccc2)cc1
REMARK SMILES IDX 13 1 14 2 3 3 2 4 1 5 4 6 5 7 6 8 7 9 8 10 12 11 9 12 11 13
REMARK SMILES IDX 10 14 15 16 16 17 43 18 17 19 42 20 18 21 19 22 20 24 21 25
REMARK SMILES IDX 22 26 35 27 23 28 24 29 34 30 25 31 32 32 26 33 27 34 33 36
REMARK SMILES IDX 36 37 37 38 41 39 38 40 40 41 39 42 28 43 29 44 30 45 31 46
REMARK H PARENT 10 15 19 23 24 35
ROOT
ATOM      1  C   UNL     1      28.975   0.200 -13.409  1.00  0.00     0.277 C 
ATOM      2  O   UNL     1      28.819   0.827 -12.363  1.00  0.00    -0.267 OA
ENDROOT
BRANCH   1   3
ATOM      3  N   UNL     1      30.138   0.200 -14.167  1.00  0.00    -0.218 N 
BRANCH   3   4
ATOM      4  C   UNL     1      30.508   1.063 -15.286  1.00  0.00     0.150 C 
ATOM      5  C   UNL     1      31.997   1.033 -15.600  1.00  0.00     0.030 C 
ENDBRANCH   3   4
BRANCH   3   6
ATOM      6  O   UNL     1      31.278  -0.219 -13.431  1.00  0.00    -0.269 OA
BRANCH   6   7
ATOM      7  C   UNL     1      31.177  -1.620 -13.155  1.00  0.00     0.209 C 
BRANCH   7   8
ATOM      8  C   UNL     1      31.899  -2.452 -14.233  1.00  0.00     0.116 C 
BRANCH   8   9
ATOM      9  N   UNL     1      33.367  -2.388 -14.336  1.00  0.00    -0.298 NA
ATOM     10  C   UNL     1      34.060  -2.270 -13.045  1.00  0.00     0.100 C 
ATOM     11  C   UNL     1      33.933  -3.487 -15.143  1.00  0.00     0.100 C 
ATOM     12  C   UNL     1      35.593  -2.151 -13.230  1.00  0.00     0.096 C 
ATOM     13  C   UNL     1      35.468  -3.368 -15.286  1.00  0.00     0.096 C 
ATOM     14  N   UNL     1      36.168  -3.278 -13.987  1.00  0.00    -0.314 NA
ATOM     15  H   UNL     1      35.963  -4.133 -13.473  1.00  0.00     0.122 HD
ENDBRANCH   8   9
ENDBRANCH   7   8
ENDBRANCH   6   7
ENDBRANCH   3   6
ENDBRANCH   1   3
BRANCH   1  16
ATOM     16  C   UNL     1      27.898  -0.717 -13.827  1.00  0.00     0.042 A 
ATOM     17  C   UNL     1      27.669  -0.995 -15.173  1.00  0.00     0.016 A 
ATOM     18  C   UNL     1      27.081  -1.274 -12.844  1.00  0.00     0.016 A 
ATOM     19  C   UNL     1      26.663  -1.901 -15.530  1.00  0.00     0.027 A 
ATOM     20  C   UNL     1      26.068  -2.163 -13.211  1.00  0.00     0.027 A 
ATOM     21  C   UNL     1      25.876  -2.527 -14.554  1.00  0.00     0.038 A 
BRANCH  21  22
ATOM     22  N   UNL     1      24.823  -3.433 -14.863  1.00  0.00    -0.354 N 
ATOM     23  H   UNL     1      24.706  -3.449 -15.876  1.00  0.00     0.167 HD
BRANCH  22  24
ATOM     24  C   UNL     1      23.585  -3.427 -14.225  1.00  0.00     0.059 C 
ATOM     25  C   UNL     1      22.480  -2.743 -14.598  1.00  0.00     0.073 C 
ATOM     26  C   UNL     1      22.465  -1.798 -15.783  1.00  0.00     0.258 C 
ATOM     27  C   UNL     1      21.128  -2.678 -14.001  1.00  0.00     0.013 A 
ATOM     28  O   UNL     1      23.348  -1.517 -16.569  1.00  0.00    -0.269 OA
ATOM     29  N   UNL     1      21.185  -1.266 -15.803  1.00  0.00    -0.321 N 
ATOM     30  C   UNL     1      20.502  -3.309 -12.938  1.00  0.00     0.015 A 
ATOM     31  C   UNL     1      20.403  -1.766 -14.771  1.00  0.00     0.050 A 
ATOM     32  C   UNL     1      19.160  -2.992 -12.626  1.00  0.00    -0.036 A 
ATOM     33  C   UNL     1      19.086  -1.439 -14.518  1.00  0.00     0.042 A 
ATOM     34  C   UNL     1      18.451  -2.053 -13.426  1.00  0.00     0.065 A 
ATOM     35  H   UNL     1      20.898  -0.592 -16.495  1.00  0.00     0.170 HD
ATOM     36  C   UNL     1      18.531  -3.683 -11.442  1.00  0.00     0.045 C 
BRANCH  24  37
ATOM     37  C   UNL     1      23.594  -4.202 -12.965  1.00  0.00    -0.001 A 
ATOM     38  C   UNL     1      23.453  -3.545 -11.734  1.00  0.00     0.010 A 
ATOM     39  C   UNL     1      23.708  -5.601 -12.989  1.00  0.00     0.010 A 
ATOM     40  C   UNL     1      23.454  -4.273 -10.543  1.00  0.00     0.001 A 
ATOM     41  C   UNL     1      23.705  -6.325 -11.795  1.00  0.00     0.001 A 
ATOM     42  C   UNL     1      23.582  -5.661 -10.575  1.00  0.00     0.000 A 
ENDBRANCH  24  37
BRANCH  34  43
ATOM     43  C   UNL     1      17.023  -1.720 -13.134  1.00  0.00     0.338 C 
ATOM     44  O   UNL     1      16.551  -0.596 -13.174  1.00  0.00    -0.246 OA
BRANCH  43  45
ATOM     45  O   UNL     1      16.334  -2.856 -12.848  1.00  0.00    -0.465 OA
ATOM     46  C   UNL     1      15.046  -2.625 -12.276  1.00  0.00     0.282 C 
ENDBRANCH  43  45
ENDBRANCH  34  43
ENDBRANCH  22  24
ENDBRANCH  21  22
ENDBRANCH   1  16
TORSDOF 12
ENDMDL
MODEL 4
REMARK VINA RESULT:      -6.7     13.033     18.878
REMARK SMILES CCN(OCCN1CCNCC1)C(=O)c1ccc(N/C(=C2\C(=O)Nc3cc(C(=O)OC)c(C)cc32)c2ccccc2)cc1
REMARK SMILES IDX 13 1 14 2 3 3 2 4 1 5 4 6 5 7 6 8 7 9 8 10 12 11 9 12 11 13
REMARK SMILES IDX 10 14 15 16 16 17 43 18 17 19 42 20 18 21 19 22 20 24 21 25
REMARK SMILES IDX 22 26 35 27 23 28 24 29 34 30 25 31 32 32 26 33 27 34 33 36
REMARK SMILES IDX 36 37 37 38 41 39 38 40 40 41 39 42 28 43 29 44 30 45 31 46
REMARK H PARENT 10 15 19 23 24 35
ROOT
ATOM      1  C   UNL     1      12.605  -6.360  -1.225  1.00  0.00     0.277 C 
ATOM      2  O   UNL     1      12.000  -5.965  -2.220  1.00  0.00    -0.267 OA
ENDROOT
BRANCH   1   3
ATOM      3  N   UNL     1      12.205  -6.140   0.085  1.00  0.00    -0.218 N 
BRANCH   3   4
ATOM      4  C   UNL     1      13.026  -5.941   1.278  1.00  0.00     0.150 C 
ATOM      5  C   UNL     1      13.254  -7.222   2.069  1.00  0.00     0.030 C 
ENDBRANCH   3   4
BRANCH   3   6
ATOM      6  O   UNL     1      10.972  -5.442   0.178  1.00  0.00    -0.269 OA
BRANCH   6   7
ATOM      7  C   UNL     1       9.925  -6.368   0.488  1.00  0.00     0.209 C 
BRANCH   7   8
ATOM      8  C   UNL     1       8.851  -6.384  -0.617  1.00  0.00     0.116 C 
BRANCH   8   9
ATOM      9  N   UNL     1       7.448  -6.104  -0.270  1.00  0.00    -0.298 NA
ATOM     10  C   UNL     1       7.215  -4.760   0.278  1.00  0.00     0.100 C 
ATOM     11  C   UNL     1       6.515  -6.395  -1.377  1.00  0.00     0.100 C 
ATOM     12  C   UNL     1       5.733  -4.554   0.673  1.00  0.00     0.096 C 
ATOM     13  C   UNL     1       5.044  -6.149  -0.972  1.00  0.00     0.096 C 
ATOM     14  N   UNL     1       4.803  -4.788  -0.449  1.00  0.00    -0.314 NA
ATOM     15  H   UNL     1       5.042  -4.131  -1.190  1.00  0.00     0.122 HD
ENDBRANCH   8   9
ENDBRANCH   7   8
ENDBRANCH   6   7
ENDBRANCH   3   6
ENDBRANCH   1   3
BRANCH   1  16
ATOM     16  C   UNL     1      13.773  -7.237  -1.436  1.00  0.00     0.042 A 
ATOM     17  C   UNL     1      15.053  -6.708  -1.589  1.00  0.00     0.016 A 
ATOM     18  C   UNL     1      13.564  -8.613  -1.518  1.00  0.00     0.016 A 
ATOM     19  C   UNL     1      16.142  -7.573  -1.748  1.00  0.00     0.027 A 
ATOM     20  C   UNL     1      14.655  -9.467  -1.696  1.00  0.00     0.027 A 
ATOM     21  C   UNL     1      15.965  -8.964  -1.763  1.00  0.00     0.038 A 
BRANCH  21  22
ATOM     22  N   UNL     1      17.033  -9.885  -1.949  1.00  0.00    -0.354 N 
ATOM     23  H   UNL     1      17.725  -9.720  -1.219  1.00  0.00     0.167 HD
BRANCH  22  24
ATOM     24  C   UNL     1      17.655 -10.110  -3.174  1.00  0.00     0.059 C 
ATOM     25  C   UNL     1      17.461 -11.158  -4.006  1.00  0.00     0.073 C 
ATOM     26  C   UNL     1      16.540 -12.313  -3.665  1.00  0.00     0.258 C 
ATOM     27  C   UNL     1      18.059 -11.482  -5.320  1.00  0.00     0.013 A 
ATOM     28  O   UNL     1      15.844 -12.493  -2.687  1.00  0.00    -0.269 OA
ATOM     29  N   UNL     1      16.652 -13.190  -4.733  1.00  0.00    -0.321 N 
ATOM     30  C   UNL     1      18.939 -10.836  -6.174  1.00  0.00     0.015 A 
ATOM     31  C   UNL     1      17.534 -12.719  -5.696  1.00  0.00     0.050 A 
ATOM     32  C   UNL     1      19.321 -11.455  -7.386  1.00  0.00    -0.036 A 
ATOM     33  C   UNL     1      17.861 -13.355  -6.877  1.00  0.00     0.042 A 
ATOM     34  C   UNL     1      18.774 -12.721  -7.737  1.00  0.00     0.065 A 
ATOM     35  H   UNL     1      16.144 -14.060  -4.764  1.00  0.00     0.170 HD
ATOM     36  C   UNL     1      20.304 -10.728  -8.269  1.00  0.00     0.045 C 
BRANCH  24  37
ATOM     37  C   UNL     1      18.691  -9.098  -3.477  1.00  0.00    -0.001 A 
ATOM     38  C   UNL     1      19.967  -9.203  -2.903  1.00  0.00     0.010 A 
ATOM     39  C   UNL     1      18.420  -8.045  -4.366  1.00  0.00     0.010 A 
ATOM     40  C   UNL     1      20.949  -8.254  -3.192  1.00  0.00     0.001 A 
ATOM     41  C   UNL     1      19.408  -7.100  -4.654  1.00  0.00     0.001 A 
ATOM     42  C   UNL     1      20.668  -7.204  -4.065  1.00  0.00     0.000 A 
ENDBRANCH  24  37
BRANCH  34  43
ATOM     43  C   UNL     1      19.140 -13.386  -9.025  1.00  0.00     0.338 C 
ATOM     44  O   UNL     1      20.121 -14.093  -9.187  1.00  0.00    -0.246 OA
BRANCH  43  45
ATOM     45  O   UNL     1      18.204 -13.106  -9.970  1.00  0.00    -0.465 OA
ATOM     46  C   UNL     1      17.644 -14.264 -10.591  1.00  0.00     0.282 C 
ENDBRANCH  43  45
ENDBRANCH  34  43
ENDBRANCH  22  24
ENDBRANCH  21  22
ENDBRANCH   1  16
TORSDOF 12
ENDMDL
MODEL 5
REMARK VINA RESULT:      -6.6     20.797     25.517
REMARK SMILES CCN(OCCN1CCNCC1)C(=O)c1ccc(N/C(=C2\C(=O)Nc3cc(C(=O)OC)c(C)cc32)c2ccccc2)cc1
REMARK SMILES IDX 13 1 14 2 3 3 2 4 1 5 4 6 5 7 6 8 7 9 8 10 12 11 9 12 11 13
REMARK SMILES IDX 10 14 15 16 16 17 43 18 17 19 42 20 18 21 19 22 20 24 21 25
REMARK SMILES IDX 22 26 35 27 23 28 24 29 34 30 25 31 32 32 26 33 27 34 33 36
REMARK SMILES IDX 36 37 37 38 41 39 38 40 40 41 39 42 28 43 29 44 30 45 31 46
REMARK H PARENT 10 15 19 23 24 35
ROOT
ATOM      1  C   UNL     1      40.989  -1.917  10.239  1.00  0.00     0.277 C 
ATOM      2  O   UNL     1      41.504  -1.145  11.046  1.00  0.00    -0.267 OA
ENDROOT
BRANCH   1   3
ATOM      3  N   UNL     1      41.029  -3.301  10.331  1.00  0.00    -0.218 N 
BRANCH   3   4
ATOM      4  C   UNL     1      42.104  -4.161  10.819  1.00  0.00     0.150 C 
ATOM      5  C   UNL     1      42.609  -5.144   9.772  1.00  0.00     0.030 C 
ENDBRANCH   3   4
BRANCH   3   6
ATOM      6  O   UNL     1      39.752  -3.877  10.566  1.00  0.00    -0.269 OA
BRANCH   6   7
ATOM      7  C   UNL     1      39.458  -3.824  11.967  1.00  0.00     0.209 C 
BRANCH   7   8
ATOM      8  C   UNL     1      37.973  -4.137  12.235  1.00  0.00     0.116 C 
BRANCH   8   9
ATOM      9  N   UNL     1      36.984  -3.046  12.202  1.00  0.00    -0.298 NA
ATOM     10  C   UNL     1      37.499  -1.747  12.660  1.00  0.00     0.100 C 
ATOM     11  C   UNL     1      36.316  -2.919  10.891  1.00  0.00     0.100 C 
ATOM     12  C   UNL     1      36.395  -0.662  12.653  1.00  0.00     0.096 C 
ATOM     13  C   UNL     1      35.243  -1.806  10.895  1.00  0.00     0.096 C 
ATOM     14  N   UNL     1      35.767  -0.494  11.329  1.00  0.00    -0.314 NA
ATOM     15  H   UNL     1      36.497  -0.226  10.671  1.00  0.00     0.122 HD
ENDBRANCH   8   9
ENDBRANCH   7   8
ENDBRANCH   6   7
ENDBRANCH   3   6
ENDBRANCH   1   3
BRANCH   1  16
ATOM     16  C   UNL     1      40.164  -1.336   9.164  1.00  0.00     0.042 A 
ATOM     17  C   UNL     1      40.660  -1.200   7.868  1.00  0.00     0.016 A 
ATOM     18  C   UNL     1      38.883  -0.886   9.479  1.00  0.00     0.016 A 
ATOM     19  C   UNL     1      39.834  -0.680   6.864  1.00  0.00     0.027 A 
ATOM     20  C   UNL     1      38.072  -0.351   8.474  1.00  0.00     0.027 A 
ATOM     21  C   UNL     1      38.518  -0.287   7.143  1.00  0.00     0.038 A 
BRANCH  21  22
ATOM     22  N   UNL     1      37.647   0.273   6.167  1.00  0.00    -0.354 N 
ATOM     23  H   UNL     1      36.757  -0.222   6.215  1.00  0.00     0.167 HD
BRANCH  22  24
ATOM     24  C   UNL     1      38.013   0.499   4.842  1.00  0.00     0.059 C 
ATOM     25  C   UNL     1      38.278   1.691   4.263  1.00  0.00     0.073 C 
ATOM     26  C   UNL     1      38.144   3.008   5.001  1.00  0.00     0.258 C 
ATOM     27  C   UNL     1      38.680   2.033   2.881  1.00  0.00     0.013 A 
ATOM     28  O   UNL     1      37.828   3.227   6.154  1.00  0.00    -0.269 OA
ATOM     29  N   UNL     1      38.452   3.980   4.063  1.00  0.00    -0.321 N 
ATOM     30  C   UNL     1      38.986   1.298   1.746  1.00  0.00     0.015 A 
ATOM     31  C   UNL     1      38.761   3.425   2.828  1.00  0.00     0.050 A 
ATOM     32  C   UNL     1      39.331   1.967   0.549  1.00  0.00    -0.036 A 
ATOM     33  C   UNL     1      39.112   4.123   1.690  1.00  0.00     0.042 A 
ATOM     34  C   UNL     1      39.397   3.388   0.527  1.00  0.00     0.065 A 
ATOM     35  H   UNL     1      38.434   4.962   4.287  1.00  0.00     0.170 HD
ATOM     36  C   UNL     1      39.626   1.126  -0.667  1.00  0.00     0.045 C 
BRANCH  24  37
ATOM     37  C   UNL     1      37.994  -0.739   4.032  1.00  0.00    -0.001 A 
ATOM     38  C   UNL     1      36.814  -1.140   3.388  1.00  0.00     0.010 A 
ATOM     39  C   UNL     1      39.161  -1.502   3.869  1.00  0.00     0.010 A 
ATOM     40  C   UNL     1      36.794  -2.303   2.616  1.00  0.00     0.001 A 
ATOM     41  C   UNL     1      39.137  -2.663   3.093  1.00  0.00     0.001 A 
ATOM     42  C   UNL     1      37.954  -3.064   2.472  1.00  0.00     0.000 A 
ENDBRANCH  24  37
BRANCH  34  43
ATOM     43  C   UNL     1      39.785   4.120  -0.718  1.00  0.00     0.338 C 
ATOM     44  O   UNL     1      40.933   4.359  -1.053  1.00  0.00    -0.246 OA
BRANCH  43  45
ATOM     45  O   UNL     1      38.671   4.449  -1.424  1.00  0.00    -0.465 OA
ATOM     46  C   UNL     1      38.922   4.739  -2.800  1.00  0.00     0.282 C 
ENDBRANCH  43  45
ENDBRANCH  34  43
ENDBRANCH  22  24
ENDBRANCH  21  22
ENDBRANCH   1  16
TORSDOF 12
ENDMDL
MODEL 6
REMARK VINA RESULT:      -6.6     14.787     19.320
REMARK SMILES CCN(OCCN1CCNCC1)C(=O)c1ccc(N/C(=C2\C(=O)Nc3cc(C(=O)OC)c(C)cc32)c2ccccc2)cc1
REMARK SMILES IDX 13 1 14 2 3 3 2 4 1 5 4 6 5 7 6 8 7 9 8 10 12 11 9 12 11 13
REMARK SMILES IDX 10 14 15 16 16 17 43 18 17 19 42 20 18 21 19 22 20 24 21 25
REMARK SMILES IDX 22 26 35 27 23 28 24 29 34 30 25 31 32 32 26 33 27 34 33 36
REMARK SMILES IDX 36 37 37 38 41 39 38 40 40 41 39 42 28 43 29 44 30 45 31 46
REMARK H PARENT 10 15 19 23 24 35
ROOT
ATOM      1  C   UNL     1      24.925  14.373  -9.066  1.00  0.00     0.277 C 
ATOM      2  O   UNL     1      24.474  13.544  -8.277  1.00  0.00    -0.267 OA
ENDROOT
BRANCH   1   3
ATOM      3  N   UNL     1      24.403  15.642  -9.266  1.00  0.00    -0.218 N 
BRANCH   3   4
ATOM      4  C   UNL     1      23.143  16.032  -9.894  1.00  0.00     0.150 C 
ATOM      5  C   UNL     1      22.920  15.374 -11.249  1.00  0.00     0.030 C 
ENDBRANCH   3   4
BRANCH   3   6
ATOM      6  O   UNL     1      24.791  16.566  -8.259  1.00  0.00    -0.269 OA
BRANCH   6   7
ATOM      7  C   UNL     1      24.255  17.857  -8.567  1.00  0.00     0.209 C 
BRANCH   7   8
ATOM      8  C   UNL     1      25.186  18.979  -8.069  1.00  0.00     0.116 C 
BRANCH   8   9
ATOM      9  N   UNL     1      26.466  19.219  -8.757  1.00  0.00    -0.298 NA
ATOM     10  C   UNL     1      27.653  18.836  -7.977  1.00  0.00     0.100 C 
ATOM     11  C   UNL     1      26.508  18.630 -10.109  1.00  0.00     0.100 C 
ATOM     12  C   UNL     1      28.962  19.166  -8.735  1.00  0.00     0.096 C 
ATOM     13  C   UNL     1      27.837  18.941 -10.834  1.00  0.00     0.096 C 
ATOM     14  N   UNL     1      29.030  18.531 -10.064  1.00  0.00    -0.314 NA
ATOM     15  H   UNL     1      28.972  17.523  -9.929  1.00  0.00     0.122 HD
ENDBRANCH   8   9
ENDBRANCH   7   8
ENDBRANCH   6   7
ENDBRANCH   3   6
ENDBRANCH   1   3
BRANCH   1  16
ATOM     16  C   UNL     1      26.185  14.044  -9.759  1.00  0.00     0.042 A 
ATOM     17  C   UNL     1      26.920  12.909  -9.420  1.00  0.00     0.016 A 
ATOM     18  C   UNL     1      26.649  14.917 -10.742  1.00  0.00     0.016 A 
ATOM     19  C   UNL     1      28.090  12.608 -10.127  1.00  0.00     0.027 A 
ATOM     20  C   UNL     1      27.828  14.617 -11.430  1.00  0.00     0.027 A 
ATOM     21  C   UNL     1      28.538  13.434 -11.167  1.00  0.00     0.038 A 
BRANCH  21  22
ATOM     22  N   UNL     1      29.734  13.189 -11.898  1.00  0.00    -0.354 N 
ATOM     23  H   UNL     1      30.479  13.748 -11.484  1.00  0.00     0.167 HD
BRANCH  22  24
ATOM     24  C   UNL     1      29.812  13.221 -13.289  1.00  0.00     0.059 C 
ATOM     25  C   UNL     1      29.814  12.162 -14.129  1.00  0.00     0.073 C 
ATOM     26  C   UNL     1      29.794  10.728 -13.637  1.00  0.00     0.258 C 
ATOM     27  C   UNL     1      29.881  12.091 -15.605  1.00  0.00     0.013 A 
ATOM     28  O   UNL     1      29.750  10.293 -12.505  1.00  0.00    -0.269 OA
ATOM     29  N   UNL     1      29.853   9.953 -14.785  1.00  0.00    -0.321 N 
ATOM     30  C   UNL     1      29.897  13.030 -16.625  1.00  0.00     0.015 A 
ATOM     31  C   UNL     1      29.908  10.734 -15.932  1.00  0.00     0.050 A 
ATOM     32  C   UNL     1      29.982  12.603 -17.970  1.00  0.00    -0.036 A 
ATOM     33  C   UNL     1      29.971  10.268 -17.229  1.00  0.00     0.042 A 
ATOM     34  C   UNL     1      30.015  11.212 -18.269  1.00  0.00     0.065 A 
ATOM     35  H   UNL     1      29.861   8.946 -14.749  1.00  0.00     0.170 HD
ATOM     36  C   UNL     1      30.027  13.661 -19.043  1.00  0.00     0.045 C 
BRANCH  24  37
ATOM     37  C   UNL     1      30.004  14.592 -13.813  1.00  0.00    -0.001 A 
ATOM     38  C   UNL     1      28.922  15.291 -14.368  1.00  0.00     0.010 A 
ATOM     39  C   UNL     1      31.257  15.218 -13.726  1.00  0.00     0.010 A 
ATOM     40  C   UNL     1      29.097  16.586 -14.857  1.00  0.00     0.001 A 
ATOM     41  C   UNL     1      31.427  16.516 -14.213  1.00  0.00     0.001 A 
ATOM     42  C   UNL     1      30.349  17.196 -14.781  1.00  0.00     0.000 A 
ENDBRANCH  24  37
BRANCH  34  43
ATOM     43  C   UNL     1      30.078  10.732 -19.684  1.00  0.00     0.338 C 
ATOM     44  O   UNL     1      31.108  10.562 -20.314  1.00  0.00    -0.246 OA
BRANCH  43  45
ATOM     45  O   UNL     1      28.822  10.490 -20.143  1.00  0.00    -0.465 OA
ATOM     46  C   UNL     1      28.593   9.129 -20.514  1.00  0.00     0.282 C 
ENDBRANCH  43  45
ENDBRANCH  34  43
ENDBRANCH  22  24
ENDBRANCH  21  22
ENDBRANCH   1  16
TORSDOF 12
ENDMDL
MODEL 7
REMARK VINA RESULT:      -6.3     15.443     18.807
REMARK SMILES CCN(OCCN1CCNCC1)C(=O)c1ccc(N/C(=C2\C(=O)Nc3cc(C(=O)OC)c(C)cc32)c2ccccc2)cc1
REMARK SMILES IDX 13 1 14 2 3 3 2 4 1 5 4 6 5 7 6 8 7 9 8 10 12 11 9 12 11 13
REMARK SMILES IDX 10 14 15 16 16 17 43 18 17 19 42 20 18 21 19 22 20 24 21 25
REMARK SMILES IDX 22 26 35 27 23 28 24 29 34 30 25 31 32 32 26 33 27 34 33 36
REMARK SMILES IDX 36 37 37 38 41 39 38 40 40 41 39 42 28 43 29 44 30 45 31 46
REMARK H PARENT 10 15 19 23 24 35
ROOT
ATOM      1  C   UNL     1      18.539  -9.543  -1.618  1.00  0.00     0.277 C 
ATOM      2  O   UNL     1      19.578  -8.891  -1.520  1.00  0.00    -0.267 OA
ENDROOT
BRANCH   1   3
ATOM      3  N   UNL     1      18.422 -10.751  -2.288  1.00  0.00    -0.218 N 
BRANCH   3   4
ATOM      4  C   UNL     1      18.605 -11.038  -3.709  1.00  0.00     0.150 C 
ATOM      5  C   UNL     1      17.349 -10.800  -4.536  1.00  0.00     0.030 C 
ENDBRANCH   3   4
BRANCH   3   6
ATOM      6  O   UNL     1      18.769 -11.868  -1.483  1.00  0.00    -0.269 OA
BRANCH   6   7
ATOM      7  C   UNL     1      19.866 -12.565  -2.084  1.00  0.00     0.209 C 
BRANCH   7   8
ATOM      8  C   UNL     1      21.199 -12.196  -1.404  1.00  0.00     0.116 C 
BRANCH   8   9
ATOM      9  N   UNL     1      21.739 -13.067  -0.346  1.00  0.00    -0.298 NA
ATOM     10  C   UNL     1      21.462 -12.603   1.021  1.00  0.00     0.100 C 
ATOM     11  C   UNL     1      21.349 -14.481  -0.515  1.00  0.00     0.100 C 
ATOM     12  C   UNL     1      22.104 -13.532   2.079  1.00  0.00     0.096 C 
ATOM     13  C   UNL     1      21.973 -15.386   0.573  1.00  0.00     0.096 C 
ATOM     14  N   UNL     1      21.671 -14.936   1.948  1.00  0.00    -0.314 NA
ATOM     15  H   UNL     1      20.658 -14.959   2.059  1.00  0.00     0.122 HD
ENDBRANCH   8   9
ENDBRANCH   7   8
ENDBRANCH   6   7
ENDBRANCH   3   6
ENDBRANCH   1   3
BRANCH   1  16
ATOM     16  C   UNL     1      17.362  -9.072  -0.864  1.00  0.00     0.042 A 
ATOM     17  C   UNL     1      16.428  -8.217  -1.446  1.00  0.00     0.016 A 
ATOM     18  C   UNL     1      17.220  -9.472   0.464  1.00  0.00     0.016 A 
ATOM     19  C   UNL     1      15.302  -7.823  -0.714  1.00  0.00     0.027 A 
ATOM     20  C   UNL     1      16.101  -9.059   1.193  1.00  0.00     0.027 A 
ATOM     21  C   UNL     1      15.102  -8.270   0.600  1.00  0.00     0.038 A 
BRANCH  21  22
ATOM     22  N   UNL     1      13.991  -7.878   1.397  1.00  0.00    -0.354 N 
ATOM     23  H   UNL     1      14.170  -8.171   2.357  1.00  0.00     0.167 HD
BRANCH  22  24
ATOM     24  C   UNL     1      12.664  -8.122   1.049  1.00  0.00     0.059 C 
ATOM     25  C   UNL     1      11.726  -7.204   0.724  1.00  0.00     0.073 C 
ATOM     26  C   UNL     1      11.994  -5.713   0.758  1.00  0.00     0.258 C 
ATOM     27  C   UNL     1      10.308  -7.360   0.333  1.00  0.00     0.013 A 
ATOM     28  O   UNL     1      13.011  -5.109   1.033  1.00  0.00    -0.269 OA
ATOM     29  N   UNL     1      10.788  -5.122   0.412  1.00  0.00    -0.321 N 
ATOM     30  C   UNL     1       9.475  -8.443   0.101  1.00  0.00     0.015 A 
ATOM     31  C   UNL     1       9.802  -6.069   0.168  1.00  0.00     0.050 A 
ATOM     32  C   UNL     1       8.125  -8.227  -0.258  1.00  0.00    -0.036 A 
ATOM     33  C   UNL     1       8.498  -5.806  -0.199  1.00  0.00     0.042 A 
ATOM     34  C   UNL     1       7.639  -6.898  -0.411  1.00  0.00     0.065 A 
ATOM     35  H   UNL     1      10.678  -4.122   0.364  1.00  0.00     0.170 HD
ATOM     36  C   UNL     1       7.250  -9.436  -0.471  1.00  0.00     0.045 C 
BRANCH  24  37
ATOM     37  C   UNL     1      12.304  -9.552   1.164  1.00  0.00    -0.001 A 
ATOM     38  C   UNL     1      12.449 -10.405   0.060  1.00  0.00     0.010 A 
ATOM     39  C   UNL     1      11.848 -10.076   2.384  1.00  0.00     0.010 A 
ATOM     40  C   UNL     1      12.117 -11.757   0.167  1.00  0.00     0.001 A 
ATOM     41  C   UNL     1      11.520 -11.430   2.486  1.00  0.00     0.001 A 
ATOM     42  C   UNL     1      11.651 -12.267   1.378  1.00  0.00     0.000 A 
ENDBRANCH  24  37
BRANCH  34  43
ATOM     43  C   UNL     1       6.222  -6.640  -0.814  1.00  0.00     0.338 C 
ATOM     44  O   UNL     1       5.822  -6.617  -1.966  1.00  0.00    -0.246 OA
BRANCH  43  45
ATOM     45  O   UNL     1       5.453  -6.465   0.293  1.00  0.00    -0.465 OA
ATOM     46  C   UNL     1       4.059  -6.681   0.070  1.00  0.00     0.282 C 
ENDBRANCH  43  45
ENDBRANCH  34  43
ENDBRANCH  22  24
ENDBRANCH  21  22
ENDBRANCH   1  16
TORSDOF 12
ENDMDL
MODEL 8
REMARK VINA RESULT:      -6.2     18.033     20.396
REMARK SMILES CCN(OCCN1CCNCC1)C(=O)c1ccc(N/C(=C2\C(=O)Nc3cc(C(=O)OC)c(C)cc32)c2ccccc2)cc1
REMARK SMILES IDX 13 1 14 2 3 3 2 4 1 5 4 6 5 7 6 8 7 9 8 10 12 11 9 12 11 13
REMARK SMILES IDX 10 14 15 16 16 17 43 18 17 19 42 20 18 21 19 22 20 24 21 25
REMARK SMILES IDX 22 26 35 27 23 28 24 29 34 30 25 31 32 32 26 33 27 34 33 36
REMARK SMILES IDX 36 37 37 38 41 39 38 40 40 41 39 42 28 43 29 44 30 45 31 46
REMARK H PARENT 10 15 19 23 24 35
ROOT
ATOM      1  C   UNL     1      19.540  17.164  -8.475  1.00  0.00     0.277 C 
ATOM      2  O   UNL     1      19.501  17.991  -9.384  1.00  0.00    -0.267 OA
ENDROOT
BRANCH   1   3
ATOM      3  N   UNL     1      20.508  17.121  -7.483  1.00  0.00    -0.218 N 
BRANCH   3   4
ATOM      4  C   UNL     1      20.411  17.529  -6.083  1.00  0.00     0.150 C 
ATOM      5  C   UNL     1      19.469  18.706  -5.864  1.00  0.00     0.030 C 
ENDBRANCH   3   4
BRANCH   3   6
ATOM      6  O   UNL     1      21.429  16.053  -7.652  1.00  0.00    -0.269 OA
BRANCH   6   7
ATOM      7  C   UNL     1      22.494  16.477  -8.510  1.00  0.00     0.209 C 
BRANCH   7   8
ATOM      8  C   UNL     1      22.663  15.513  -9.701  1.00  0.00     0.116 C 
BRANCH   8   9
ATOM      9  N   UNL     1      22.141  15.896 -11.024  1.00  0.00    -0.298 NA
ATOM     10  C   UNL     1      23.147  15.892 -12.097  1.00  0.00     0.100 C 
ATOM     11  C   UNL     1      20.947  15.121 -11.414  1.00  0.00     0.100 C 
ATOM     12  C   UNL     1      22.544  16.357 -13.444  1.00  0.00     0.096 C 
ATOM     13  C   UNL     1      20.382  15.577 -12.779  1.00  0.00     0.096 C 
ATOM     14  N   UNL     1      21.385  15.546 -13.864  1.00  0.00    -0.314 NA
ATOM     15  H   UNL     1      21.701  14.582 -13.958  1.00  0.00     0.122 HD
ENDBRANCH   8   9
ENDBRANCH   7   8
ENDBRANCH   6   7
ENDBRANCH   3   6
ENDBRANCH   1   3
BRANCH   1  16
ATOM     16  C   UNL     1      18.408  16.225  -8.354  1.00  0.00     0.042 A 
ATOM     17  C   UNL     1      18.577  14.860  -8.578  1.00  0.00     0.016 A 
ATOM     18  C   UNL     1      17.149  16.739  -8.047  1.00  0.00     0.016 A 
ATOM     19  C   UNL     1      17.489  13.994  -8.416  1.00  0.00     0.027 A 
ATOM     20  C   UNL     1      16.065  15.868  -7.905  1.00  0.00     0.027 A 
ATOM     21  C   UNL     1      16.229  14.480  -8.038  1.00  0.00     0.038 A 
BRANCH  21  22
ATOM     22  N   UNL     1      15.085  13.648  -7.887  1.00  0.00    -0.354 N 
ATOM     23  H   UNL     1      15.406  12.695  -7.716  1.00  0.00     0.167 HD
BRANCH  22  24
ATOM     24  C   UNL     1      14.004  13.652  -8.765  1.00  0.00     0.059 C 
ATOM     25  C   UNL     1      12.717  13.944  -8.471  1.00  0.00     0.073 C 
ATOM     26  C   UNL     1      12.251  14.261  -7.064  1.00  0.00     0.258 C 
ATOM     27  C   UNL     1      11.510  13.986  -9.325  1.00  0.00     0.013 A 
ATOM     28  O   UNL     1      12.885  14.334  -6.031  1.00  0.00    -0.269 OA
ATOM     29  N   UNL     1      10.882  14.453  -7.172  1.00  0.00    -0.321 N 
ATOM     30  C   UNL     1      11.268  13.819 -10.679  1.00  0.00     0.015 A 
ATOM     31  C   UNL     1      10.442  14.291  -8.479  1.00  0.00     0.050 A 
ATOM     32  C   UNL     1       9.948  13.918 -11.174  1.00  0.00    -0.036 A 
ATOM     33  C   UNL     1       9.139  14.418  -8.917  1.00  0.00     0.042 A 
ATOM     34  C   UNL     1       8.880  14.223 -10.284  1.00  0.00     0.065 A 
ATOM     35  H   UNL     1      10.310  14.673  -6.373  1.00  0.00     0.170 HD
ATOM     36  C   UNL     1       9.731  13.699 -12.650  1.00  0.00     0.045 C 
BRANCH  24  37
ATOM     37  C   UNL     1      14.374  13.184 -10.119  1.00  0.00    -0.001 A 
ATOM     38  C   UNL     1      14.889  14.088 -11.060  1.00  0.00     0.010 A 
ATOM     39  C   UNL     1      14.247  11.828 -10.464  1.00  0.00     0.010 A 
ATOM     40  C   UNL     1      15.246  13.649 -12.336  1.00  0.00     0.001 A 
ATOM     41  C   UNL     1      14.609  11.394 -11.741  1.00  0.00     0.001 A 
ATOM     42  C   UNL     1      15.104  12.304 -12.675  1.00  0.00     0.000 A 
ENDBRANCH  24  37
BRANCH  34  43
ATOM     43  C   UNL     1       7.478  14.360 -10.785  1.00  0.00     0.338 C 
ATOM     44  O   UNL     1       7.014  15.371 -11.283  1.00  0.00    -0.246 OA
BRANCH  43  45
ATOM     45  O   UNL     1       6.816  13.183 -10.625  1.00  0.00    -0.465 OA
ATOM     46  C   UNL     1       5.570  13.308  -9.938  1.00  0.00     0.282 C 
ENDBRANCH  43  45
ENDBRANCH  34  43
ENDBRANCH  22  24
ENDBRANCH  21  22
ENDBRANCH   1  16
TORSDOF 12
ENDMDL
MODEL 9
REMARK VINA RESULT:      -6.2     29.569     33.008
REMARK SMILES CCN(OCCN1CCNCC1)C(=O)c1ccc(N/C(=C2\C(=O)Nc3cc(C(=O)OC)c(C)cc32)c2ccccc2)cc1
REMARK SMILES IDX 13 1 14 2 3 3 2 4 1 5 4 6 5 7 6 8 7 9 8 10 12 11 9 12 11 13
REMARK SMILES IDX 10 14 15 16 16 17 43 18 17 19 42 20 18 21 19 22 20 24 21 25
REMARK SMILES IDX 22 26 35 27 23 28 24 29 34 30 25 31 32 32 26 33 27 34 33 36
REMARK SMILES IDX 36 37 37 38 41 39 38 40 40 41 39 42 28 43 29 44 30 45 31 46
REMARK H PARENT 10 15 19 23 24 35
ROOT
ATOM      1  C   UNL     1      10.724   9.468  15.537  1.00  0.00     0.277 C 
ATOM      2  O   UNL     1      10.569   8.487  16.263  1.00  0.00    -0.267 OA
ENDROOT
BRANCH   1   3
ATOM      3  N   UNL     1      11.341  10.649  15.923  1.00  0.00    -0.218 N 
BRANCH   3   4
ATOM      4  C   UNL     1      10.762  11.821  16.576  1.00  0.00     0.150 C 
ATOM      5  C   UNL     1       9.319  11.611  17.015  1.00  0.00     0.030 C 
ENDBRANCH   3   4
BRANCH   3   6
ATOM      6  O   UNL     1      12.703  10.470  16.285  1.00  0.00    -0.269 OA
BRANCH   6   7
ATOM      7  C   UNL     1      13.191  11.667  16.901  1.00  0.00     0.209 C 
BRANCH   7   8
ATOM      8  C   UNL     1      14.317  12.304  16.063  1.00  0.00     0.116 C 
BRANCH   8   9
ATOM      9  N   UNL     1      15.287  13.202  16.713  1.00  0.00    -0.298 NA
ATOM     10  C   UNL     1      14.680  14.345  17.410  1.00  0.00     0.100 C 
ATOM     11  C   UNL     1      16.230  12.485  17.593  1.00  0.00     0.100 C 
ATOM     12  C   UNL     1      15.755  15.276  18.022  1.00  0.00     0.096 C 
ATOM     13  C   UNL     1      17.273  13.437  18.221  1.00  0.00     0.096 C 
ATOM     14  N   UNL     1      16.664  14.571  18.946  1.00  0.00    -0.314 NA
ATOM     15  H   UNL     1      16.098  14.181  19.698  1.00  0.00     0.122 HD
ENDBRANCH   8   9
ENDBRANCH   7   8
ENDBRANCH   6   7
ENDBRANCH   3   6
ENDBRANCH   1   3
BRANCH   1  16
ATOM     16  C   UNL     1      10.341   9.339  14.119  1.00  0.00     0.042 A 
ATOM     17  C   UNL     1       9.237  10.017  13.606  1.00  0.00     0.016 A 
ATOM     18  C   UNL     1      11.087   8.489  13.304  1.00  0.00     0.016 A 
ATOM     19  C   UNL     1       8.927   9.902  12.246  1.00  0.00     0.027 A 
ATOM     20  C   UNL     1      10.758   8.366  11.951  1.00  0.00     0.027 A 
ATOM     21  C   UNL     1       9.705   9.108  11.392  1.00  0.00     0.038 A 
BRANCH  21  22
ATOM     22  N   UNL     1       9.418   8.934  10.009  1.00  0.00    -0.354 N 
ATOM     23  H   UNL     1      10.264   8.602   9.548  1.00  0.00     0.167 HD
BRANCH  22  24
ATOM     24  C   UNL     1       8.775   9.891   9.227  1.00  0.00     0.059 C 
ATOM     25  C   UNL     1       7.484   9.881   8.826  1.00  0.00     0.073 C 
ATOM     26  C   UNL     1       6.538   8.740   9.140  1.00  0.00     0.258 C 
ATOM     27  C   UNL     1       6.712  10.844   8.010  1.00  0.00     0.013 A 
ATOM     28  O   UNL     1       6.729   7.722   9.775  1.00  0.00    -0.269 OA
ATOM     29  N   UNL     1       5.344   9.080   8.524  1.00  0.00    -0.321 N 
ATOM     30  C   UNL     1       6.985  12.079   7.442  1.00  0.00     0.015 A 
ATOM     31  C   UNL     1       5.436  10.297   7.862  1.00  0.00     0.050 A 
ATOM     32  C   UNL     1       5.988  12.742   6.691  1.00  0.00    -0.036 A 
ATOM     33  C   UNL     1       4.423  10.914   7.155  1.00  0.00     0.042 A 
ATOM     34  C   UNL     1       4.699  12.154   6.552  1.00  0.00     0.065 A 
ATOM     35  H   UNL     1       4.533   8.485   8.566  1.00  0.00     0.170 HD
ATOM     36  C   UNL     1       6.341  14.068   6.067  1.00  0.00     0.045 C 
BRANCH  24  37
ATOM     37  C   UNL     1       9.699  10.944   8.749  1.00  0.00    -0.001 A 
ATOM     38  C   UNL     1       9.875  12.117   9.498  1.00  0.00     0.010 A 
ATOM     39  C   UNL     1      10.433  10.765   7.566  1.00  0.00     0.010 A 
ATOM     40  C   UNL     1      10.750  13.110   9.054  1.00  0.00     0.001 A 
ATOM     41  C   UNL     1      11.311  11.759   7.129  1.00  0.00     0.001 A 
ATOM     42  C   UNL     1      11.465  12.931   7.871  1.00  0.00     0.000 A 
ENDBRANCH  24  37
BRANCH  34  43
ATOM     43  C   UNL     1       3.618  12.845   5.785  1.00  0.00     0.338 C 
ATOM     44  O   UNL     1       3.541  12.878   4.569  1.00  0.00    -0.246 OA
BRANCH  43  45
ATOM     45  O   UNL     1       2.727  13.402   6.648  1.00  0.00    -0.465 OA
ATOM     46  C   UNL     1       2.807  14.826   6.724  1.00  0.00     0.282 C 
ENDBRANCH  43  45
ENDBRANCH  34  43
ENDBRANCH  22  24
ENDBRANCH  21  22
ENDBRANCH   1  16
TORSDOF 12
ENDMDL
