MODEL 1
REMARK minimizedAffinity -8.29496002
REMARK CNNscore 0.81180495
REMARK CNNaffinity 7.65576553
REMARK SMILES C#Cc1cc2c(N3CCN(C(=O)Nc4ccc(OCC)cc4)CC3)ncnc2[nH]1
REMARK SMILES IDX 14 1 15 2 16 3 17 4 21 5 22 6 13 7 7 8 8 9 24 10 9 11 23 12
REMARK SMILES IDX 10 13 11 14 12 15 6 17 2 18 3 19 4 20 29 21 5 22 28 23 27 24
REMARK SMILES IDX 25 25 26 26 1 27 18 29 19 30 20 31
REMARK H PARENT 13 16 29 28
ROOT
ATOM      1  C   UNL     1      30.956 100.715  10.087  1.00  0.00     0.043 A 
ATOM      2  C   UNL     1      29.789 101.067   9.406  1.00  0.00     0.030 A 
ATOM      3  C   UNL     1      28.893 101.996   9.953  1.00  0.00     0.048 A 
ATOM      4  C   UNL     1      29.150 102.578  11.192  1.00  0.00     0.119 A 
ATOM      5  C   UNL     1      30.310 102.219  11.880  1.00  0.00     0.048 A 
ATOM      6  C   UNL     1      31.205 101.293  11.336  1.00  0.00     0.030 A 
ENDROOT
BRANCH   1   7
ATOM      7  N   UNL     1      31.891  99.778   9.606  1.00  0.00    -0.308 N 
ATOM      8  N   UNL     1      35.470  96.251   8.780  1.00  0.00    -0.352 N 
ATOM      9  C   UNL     1      34.133  95.636   8.639  1.00  0.00     0.139 C 
ATOM     10  C   UNL     1      35.441  97.713   8.578  1.00  0.00     0.139 C 
ATOM     11  C   UNL     1      33.088  96.321   9.536  1.00  0.00     0.143 C 
ATOM     12  C   UNL     1      34.376  98.420   9.439  1.00  0.00     0.143 C 
ATOM     13  N   UNL     1      33.052  97.778   9.357  1.00  0.00    -0.321 N 
ATOM     14  C   UNL     1      31.890  98.416   9.812  1.00  0.00     0.321 C 
ATOM     15  O   UNL     1      30.963  97.784  10.309  1.00  0.00    -0.248 OA
ATOM     16  H   UNL     1      32.479 100.091   8.851  1.00  0.00     0.171 HD
BRANCH   8  17
ATOM     17  C   UNL     1      36.181  95.822   9.910  1.00  0.00     0.141 A 
ATOM     18  C   UNL     1      36.018  90.824  10.556  1.00  0.00    -0.052 C 
ATOM     19  C   UNL     1      36.240  92.223  10.647  1.00  0.00     0.091 A 
ATOM     20  C   UNL     1      35.805  93.212   9.791  1.00  0.00     0.051 A 
ATOM     21  N   UNL     1      36.963  92.825  11.643  1.00  0.00    -0.333 N 
ATOM     22  C   UNL     1      36.268  94.465  10.294  1.00  0.00     0.063 A 
ATOM     23  C   UNL     1      37.003  94.175  11.435  1.00  0.00     0.143 A 
ATOM     24  N   UNL     1      37.656  95.042  12.218  1.00  0.00    -0.218 NA
ATOM     25  N   UNL     1      36.869  96.721  10.665  1.00  0.00    -0.219 NA
ATOM     26  C   UNL     1      37.543  96.295  11.752  1.00  0.00     0.226 A 
ATOM     27  C   UNL     1      35.831  89.641  10.478  1.00  0.00     0.011 C 
ATOM     28  H   UNL     1      37.420  92.357  12.411  1.00  0.00     0.169 HD
ENDBRANCH   8  17
ENDBRANCH   1   7
BRANCH   4  29
ATOM     29  O   UNL     1      28.363 103.493  11.833  1.00  0.00    -0.494 OA
BRANCH  29  30
ATOM     30  C   UNL     1      28.752 103.867  13.154  1.00  0.00     0.226 C 
ATOM     31  C   UNL     1      28.125 102.881  14.124  1.00  0.00     0.049 C 
ENDBRANCH  29  30
ENDBRANCH   4  29
TORSDOF 4
ENDMDL
MODEL 2
REMARK minimizedAffinity -5.78421402
REMARK CNNscore 0.597445011
REMARK CNNaffinity 7.29018736
REMARK SMILES C#Cc1cc2c(N3CCN(C(=O)Nc4ccc(OCC)cc4)CC3)ncnc2[nH]1
REMARK SMILES IDX 14 1 15 2 16 3 17 4 21 5 22 6 13 7 7 8 8 9 24 10 9 11 23 12
REMARK SMILES IDX 10 13 11 14 12 15 6 17 2 18 3 19 4 20 29 21 5 22 28 23 27 24
REMARK SMILES IDX 25 25 26 26 1 27 18 29 19 30 20 31
REMARK H PARENT 13 16 29 28
ROOT
ATOM      1  C   UNL     1      38.331  91.195  11.465  1.00  0.00     0.043 A 
ATOM      2  C   UNL     1      37.544  90.049  11.341  1.00  0.00     0.030 A 
ATOM      3  C   UNL     1      37.985  88.819  11.850  1.00  0.00     0.048 A 
ATOM      4  C   UNL     1      39.223  88.721  12.482  1.00  0.00     0.119 A 
ATOM      5  C   UNL     1      40.017  89.863  12.596  1.00  0.00     0.048 A 
ATOM      6  C   UNL     1      39.578  91.091  12.090  1.00  0.00     0.030 A 
ENDROOT
BRANCH   1   7
ATOM      7  N   UNL     1      37.958  92.459  10.964  1.00  0.00    -0.308 N 
ATOM      8  N   UNL     1      35.747  96.787   9.445  1.00  0.00    -0.352 N 
ATOM      9  C   UNL     1      36.460  97.021  10.719  1.00  0.00     0.139 C 
ATOM     10  C   UNL     1      36.277  95.622   8.709  1.00  0.00     0.139 C 
ATOM     11  C   UNL     1      36.503  95.757  11.594  1.00  0.00     0.143 C 
ATOM     12  C   UNL     1      36.366  94.349   9.574  1.00  0.00     0.143 C 
ATOM     13  N   UNL     1      37.019  94.584  10.875  1.00  0.00    -0.321 N 
ATOM     14  C   UNL     1      37.466  93.528  11.679  1.00  0.00     0.321 C 
ATOM     15  O   UNL     1      37.441  93.599  12.905  1.00  0.00    -0.248 OA
ATOM     16  H   UNL     1      38.302  92.687  10.046  1.00  0.00     0.171 HD
BRANCH   8  17
ATOM     17  C   UNL     1      34.349  96.833   9.554  1.00  0.00     0.141 A 
ATOM     18  C   UNL     1      32.289 100.569   6.868  1.00  0.00    -0.052 C 
ATOM     19  C   UNL     1      32.561  99.459   7.709  1.00  0.00     0.091 A 
ATOM     20  C   UNL     1      33.782  98.889   8.000  1.00  0.00     0.051 A 
ATOM     21  N   UNL     1      31.602  98.749   8.382  1.00  0.00    -0.333 N 
ATOM     22  C   UNL     1      33.558  97.800   8.896  1.00  0.00     0.063 A 
ATOM     23  C   UNL     1      32.186  97.735   9.089  1.00  0.00     0.143 A 
ATOM     24  N   UNL     1      31.514  96.844   9.829  1.00  0.00    -0.218 NA
ATOM     25  N   UNL     1      33.690  95.890  10.281  1.00  0.00    -0.219 NA
ATOM     26  C   UNL     1      32.347  95.950  10.382  1.00  0.00     0.226 A 
ATOM     27  C   UNL     1      32.059 101.508   6.156  1.00  0.00     0.011 C 
ATOM     28  H   UNL     1      30.608  98.922   8.357  1.00  0.00     0.169 HD
ENDBRANCH   8  17
ENDBRANCH   1   7
BRANCH   4  29
ATOM     29  O   UNL     1      39.768  87.589  13.018  1.00  0.00    -0.494 OA
BRANCH  29  30
ATOM     30  C   UNL     1      39.292  86.341  12.516  1.00  0.00     0.226 C 
ATOM     31  C   UNL     1      39.169  85.382  13.687  1.00  0.00     0.049 C 
ENDBRANCH  29  30
ENDBRANCH   4  29
TORSDOF 4
ENDMDL
MODEL 3
REMARK minimizedAffinity -9.22812653
REMARK CNNscore 0.183361292
REMARK CNNaffinity 6.56309652
REMARK SMILES C#Cc1cc2c(N3CCN(C(=O)Nc4ccc(OCC)cc4)CC3)ncnc2[nH]1
REMARK SMILES IDX 14 1 15 2 16 3 17 4 21 5 22 6 13 7 7 8 8 9 24 10 9 11 23 12
REMARK SMILES IDX 10 13 11 14 12 15 6 17 2 18 3 19 4 20 29 21 5 22 28 23 27 24
REMARK SMILES IDX 25 25 26 26 1 27 18 29 19 30 20 31
REMARK H PARENT 13 16 29 28
ROOT
ATOM      1  C   UNL     1      28.162 102.829  11.762  1.00  0.00     0.043 A 
ATOM      2  C   UNL     1      27.332 102.048  12.569  1.00  0.00     0.030 A 
ATOM      3  C   UNL     1      26.170 102.590  13.138  1.00  0.00     0.048 A 
ATOM      4  C   UNL     1      25.830 103.921  12.910  1.00  0.00     0.119 A 
ATOM      5  C   UNL     1      26.664 104.707  12.114  1.00  0.00     0.048 A 
ATOM      6  C   UNL     1      27.823 104.168  11.546  1.00  0.00     0.030 A 
ENDROOT
BRANCH   1   7
ATOM      7  N   UNL     1      29.351 102.356  11.173  1.00  0.00    -0.308 N 
ATOM      8  N   UNL     1      33.203  99.817   9.017  1.00  0.00    -0.352 N 
ATOM      9  C   UNL     1      32.489 100.595   7.983  1.00  0.00     0.139 C 
ATOM     10  C   UNL     1      32.999 100.362  10.374  1.00  0.00     0.139 C 
ATOM     11  C   UNL     1      30.997 100.764   8.318  1.00  0.00     0.143 C 
ATOM     12  C   UNL     1      31.512 100.576  10.722  1.00  0.00     0.143 C 
ATOM     13  N   UNL     1      30.774 101.297   9.669  1.00  0.00    -0.321 N 
ATOM     14  C   UNL     1      29.509 101.852   9.901  1.00  0.00     0.321 C 
ATOM     15  O   UNL     1      28.658 101.902   9.017  1.00  0.00    -0.248 OA
ATOM     16  H   UNL     1      30.206 102.627  11.629  1.00  0.00     0.171 HD
BRANCH   8  17
ATOM     17  C   UNL     1      33.036  98.429   8.905  1.00  0.00     0.141 A 
ATOM     18  C   UNL     1      36.867  95.821  10.891  1.00  0.00    -0.052 C 
ATOM     19  C   UNL     1      35.674  96.259  10.260  1.00  0.00     0.091 A 
ATOM     20  C   UNL     1      35.236  97.553  10.072  1.00  0.00     0.051 A 
ATOM     21  N   UNL     1      34.732  95.421   9.726  1.00  0.00    -0.333 N 
ATOM     22  C   UNL     1      33.986  97.499   9.383  1.00  0.00     0.063 A 
ATOM     23  C   UNL     1      33.699  96.153   9.208  1.00  0.00     0.143 A 
ATOM     24  N   UNL     1      32.608  95.625   8.640  1.00  0.00    -0.218 NA
ATOM     25  N   UNL     1      31.898  97.920   8.359  1.00  0.00    -0.219 NA
ATOM     26  C   UNL     1      31.754  96.584   8.252  1.00  0.00     0.226 A 
ATOM     27  C   UNL     1      37.876  95.450  11.426  1.00  0.00     0.011 C 
ATOM     28  H   UNL     1      34.767  94.412   9.723  1.00  0.00     0.169 HD
ENDBRANCH   8  17
ENDBRANCH   1   7
BRANCH   4  29
ATOM     29  O   UNL     1      24.732 104.569  13.402  1.00  0.00    -0.494 OA
BRANCH  29  30
ATOM     30  C   UNL     1      23.772 105.028  12.452  1.00  0.00     0.226 C 
ATOM     31  C   UNL     1      23.825 104.103  11.249  1.00  0.00     0.049 C 
ENDBRANCH  29  30
ENDBRANCH   4  29
TORSDOF 4
ENDMDL
MODEL 4
REMARK minimizedAffinity -9.13647461
REMARK CNNscore 0.170708016
REMARK CNNaffinity 6.60713625
REMARK SMILES C#Cc1cc2c(N3CCN(C(=O)Nc4ccc(OCC)cc4)CC3)ncnc2[nH]1
REMARK SMILES IDX 14 1 15 2 16 3 17 4 21 5 22 6 13 7 7 8 8 9 24 10 9 11 23 12
REMARK SMILES IDX 10 13 11 14 12 15 6 17 2 18 3 19 4 20 29 21 5 22 28 23 27 24
REMARK SMILES IDX 25 25 26 26 1 27 18 29 19 30 20 31
REMARK H PARENT 13 16 29 28
ROOT
ATOM      1  C   UNL     1      35.928  94.702  10.175  1.00  0.00     0.043 A 
ATOM      2  C   UNL     1      35.925  93.333   9.901  1.00  0.00     0.030 A 
ATOM      3  C   UNL     1      36.927  92.497  10.416  1.00  0.00     0.048 A 
ATOM      4  C   UNL     1      37.947  93.024  11.205  1.00  0.00     0.119 A 
ATOM      5  C   UNL     1      37.959  94.394  11.470  1.00  0.00     0.048 A 
ATOM      6  C   UNL     1      36.960  95.229  10.958  1.00  0.00     0.030 A 
ENDROOT
BRANCH   1   7
ATOM      7  N   UNL     1      34.965  95.602   9.678  1.00  0.00    -0.308 N 
ATOM      8  N   UNL     1      31.627  99.319   8.692  1.00  0.00    -0.352 N 
ATOM      9  C   UNL     1      32.878  99.573   7.947  1.00  0.00     0.139 C 
ATOM     10  C   UNL     1      31.463  97.896   9.048  1.00  0.00     0.139 C 
ATOM     11  C   UNL     1      34.109  99.018   8.685  1.00  0.00     0.143 C 
ATOM     12  C   UNL     1      32.698  97.304   9.757  1.00  0.00     0.143 C 
ATOM     13  N   UNL     1      33.960  97.605   9.057  1.00  0.00    -0.321 N 
ATOM     14  C   UNL     1      35.150  96.927   9.353  1.00  0.00     0.321 C 
ATOM     15  O   UNL     1      36.241  97.486   9.284  1.00  0.00    -0.248 OA
ATOM     16  H   UNL     1      34.128  95.187   9.301  1.00  0.00     0.171 HD
BRANCH   8  17
ATOM     17  C   UNL     1      31.389 100.223   9.737  1.00  0.00     0.141 A 
ATOM     18  C   UNL     1      26.980 102.628   9.292  1.00  0.00    -0.052 C 
ATOM     19  C   UNL     1      28.251 102.134   9.684  1.00  0.00     0.091 A 
ATOM     20  C   UNL     1      29.023 101.177   9.060  1.00  0.00     0.051 A 
ATOM     21  N   UNL     1      28.928 102.549  10.801  1.00  0.00    -0.333 N 
ATOM     22  C   UNL     1      30.222 101.015   9.818  1.00  0.00     0.063 A 
ATOM     23  C   UNL     1      30.111 101.871  10.904  1.00  0.00     0.143 A 
ATOM     24  N   UNL     1      30.988 102.029  11.903  1.00  0.00    -0.218 NA
ATOM     25  N   UNL     1      32.280 100.334  10.760  1.00  0.00    -0.219 NA
ATOM     26  C   UNL     1      32.041 101.211  11.755  1.00  0.00     0.226 A 
ATOM     27  C   UNL     1      25.904 103.045   8.961  1.00  0.00     0.011 C 
ATOM     28  H   UNL     1      28.609 103.235  11.468  1.00  0.00     0.169 HD
ENDBRANCH   8  17
ENDBRANCH   1   7
BRANCH   4  29
ATOM     29  O   UNL     1      38.978  92.324  11.766  1.00  0.00    -0.494 OA
BRANCH  29  30
ATOM     30  C   UNL     1      39.246  91.029  11.231  1.00  0.00     0.226 C 
ATOM     31  C   UNL     1      38.523  90.008  12.091  1.00  0.00     0.049 C 
ENDBRANCH  29  30
ENDBRANCH   4  29
TORSDOF 4
ENDMDL
MODEL 5
REMARK minimizedAffinity -9.52925491
REMARK CNNscore 0.170369402
REMARK CNNaffinity 6.51644707
REMARK SMILES C#Cc1cc2c(N3CCN(C(=O)Nc4ccc(OCC)cc4)CC3)ncnc2[nH]1
REMARK SMILES IDX 14 1 15 2 16 3 17 4 21 5 22 6 13 7 7 8 8 9 24 10 9 11 23 12
REMARK SMILES IDX 10 13 11 14 12 15 6 17 2 18 3 19 4 20 29 21 5 22 28 23 27 24
REMARK SMILES IDX 25 25 26 26 1 27 18 29 19 30 20 31
REMARK H PARENT 13 16 29 28
ROOT
ATOM      1  C   UNL     1      31.955  99.711   9.333  1.00  0.00     0.043 A 
ATOM      2  C   UNL     1      33.153  99.651  10.048  1.00  0.00     0.030 A 
ATOM      3  C   UNL     1      34.010  98.549   9.919  1.00  0.00     0.048 A 
ATOM      4  C   UNL     1      33.675  97.491   9.077  1.00  0.00     0.119 A 
ATOM      5  C   UNL     1      32.473  97.543   8.370  1.00  0.00     0.048 A 
ATOM      6  C   UNL     1      31.617  98.642   8.497  1.00  0.00     0.030 A 
ENDROOT
BRANCH   1   7
ATOM      7  N   UNL     1      31.040 100.777   9.426  1.00  0.00    -0.308 N 
ATOM      8  N   UNL     1      27.204 104.023  10.256  1.00  0.00    -0.352 N 
ATOM      9  C   UNL     1      28.310 104.320  11.191  1.00  0.00     0.139 C 
ATOM     10  C   UNL     1      27.664 103.304   9.051  1.00  0.00     0.139 C 
ATOM     11  C   UNL     1      29.119 103.061  11.545  1.00  0.00     0.143 C 
ATOM     12  C   UNL     1      28.509 102.057   9.377  1.00  0.00     0.143 C 
ATOM     13  N   UNL     1      29.577 102.327  10.358  1.00  0.00    -0.321 N 
ATOM     14  C   UNL     1      30.631 101.429  10.569  1.00  0.00     0.321 C 
ATOM     15  O   UNL     1      31.142 101.288  11.676  1.00  0.00    -0.248 OA
ATOM     16  H   UNL     1      30.845 101.267   8.568  1.00  0.00     0.171 HD
BRANCH   8  17
ATOM     17  C   UNL     1      26.065 103.482  10.870  1.00  0.00     0.141 A 
ATOM     18  C   UNL     1      22.506 102.128   7.565  1.00  0.00    -0.052 C 
ATOM     19  C   UNL     1      23.291 102.406   8.714  1.00  0.00     0.091 A 
ATOM     20  C   UNL     1      24.561 102.940   8.770  1.00  0.00     0.051 A 
ATOM     21  N   UNL     1      22.886 102.165  10.001  1.00  0.00    -0.333 N 
ATOM     22  C   UNL     1      24.937 103.041  10.144  1.00  0.00     0.063 A 
ATOM     23  C   UNL     1      23.874 102.527  10.873  1.00  0.00     0.143 A 
ATOM     24  N   UNL     1      23.797 102.389  12.203  1.00  0.00    -0.218 NA
ATOM     25  N   UNL     1      26.031 103.317  12.220  1.00  0.00    -0.219 NA
ATOM     26  C   UNL     1      24.927 102.802  12.797  1.00  0.00     0.226 A 
ATOM     27  C   UNL     1      21.842 101.893   6.593  1.00  0.00     0.011 C 
ATOM     28  H   UNL     1      22.004 101.763  10.280  1.00  0.00     0.169 HD
ENDBRANCH   8  17
ENDBRANCH   1   7
BRANCH   4  29
ATOM     29  O   UNL     1      34.418  96.364   8.861  1.00  0.00    -0.494 OA
BRANCH  29  30
ATOM     30  C   UNL     1      35.469  96.095   9.788  1.00  0.00     0.226 C 
ATOM     31  C   UNL     1      35.392  94.627  10.170  1.00  0.00     0.049 C 
ENDBRANCH  29  30
ENDBRANCH   4  29
TORSDOF 4
ENDMDL
MODEL 6
REMARK minimizedAffinity -7.797369
REMARK CNNscore 0.161432415
REMARK CNNaffinity 6.5598073
REMARK SMILES C#Cc1cc2c(N3CCN(C(=O)Nc4ccc(OCC)cc4)CC3)ncnc2[nH]1
REMARK SMILES IDX 14 1 15 2 16 3 17 4 21 5 22 6 13 7 7 8 8 9 24 10 9 11 23 12
REMARK SMILES IDX 10 13 11 14 12 15 6 17 2 18 3 19 4 20 29 21 5 22 28 23 27 24
REMARK SMILES IDX 25 25 26 26 1 27 18 29 19 30 20 31
REMARK H PARENT 13 16 29 28
ROOT
ATOM      1  C   UNL     1      31.437  99.307   9.344  1.00  0.00     0.043 A 
ATOM      2  C   UNL     1      31.400  97.922   9.176  1.00  0.00     0.030 A 
ATOM      3  C   UNL     1      32.506  97.129   9.515  1.00  0.00     0.048 A 
ATOM      4  C   UNL     1      33.665  97.716  10.019  1.00  0.00     0.119 A 
ATOM      5  C   UNL     1      33.709  99.101  10.176  1.00  0.00     0.048 A 
ATOM      6  C   UNL     1      32.606  99.893   9.839  1.00  0.00     0.030 A 
ENDROOT
BRANCH   1   7
ATOM      7  N   UNL     1      30.371 100.165   9.010  1.00  0.00    -0.308 N 
ATOM      8  N   UNL     1      26.229 103.110   8.687  1.00  0.00    -0.352 N 
ATOM      9  C   UNL     1      27.422 103.961   8.883  1.00  0.00     0.139 C 
ATOM     10  C   UNL     1      26.566 101.792   8.116  1.00  0.00     0.139 C 
ATOM     11  C   UNL     1      28.514 103.243   9.695  1.00  0.00     0.143 C 
ATOM     12  C   UNL     1      27.684 101.065   8.890  1.00  0.00     0.143 C 
ATOM     13  N   UNL     1      28.855 101.924   9.147  1.00  0.00    -0.321 N 
ATOM     14  C   UNL     1      30.083 101.393   9.563  1.00  0.00     0.321 C 
ATOM     15  O   UNL     1      30.825 102.011  10.321  1.00  0.00    -0.248 OA
ATOM     16  H   UNL     1      29.917  99.981   8.130  1.00  0.00     0.171 HD
BRANCH   8  17
ATOM     17  C   UNL     1      25.364 103.075   9.790  1.00  0.00     0.141 A 
ATOM     18  C   UNL     1      27.804 103.028  14.202  1.00  0.00    -0.052 C 
ATOM     19  C   UNL     1      26.853 103.028  13.149  1.00  0.00     0.091 A 
ATOM     20  C   UNL     1      27.086 103.077  11.791  1.00  0.00     0.051 A 
ATOM     21  N   UNL     1      25.497 102.984  13.336  1.00  0.00    -0.333 N 
ATOM     22  C   UNL     1      25.822 103.048  11.126  1.00  0.00     0.063 A 
ATOM     23  C   UNL     1      24.861 103.013  12.126  1.00  0.00     0.143 A 
ATOM     24  N   UNL     1      23.531 103.012  11.970  1.00  0.00    -0.218 NA
ATOM     25  N   UNL     1      24.017 103.115   9.602  1.00  0.00    -0.219 NA
ATOM     26  C   UNL     1      23.197 103.074  10.672  1.00  0.00     0.226 A 
ATOM     27  C   UNL     1      28.608 103.029  15.093  1.00  0.00     0.011 C 
ATOM     28  H   UNL     1      25.020 102.955  14.225  1.00  0.00     0.169 HD
ENDBRANCH   8  17
ENDBRANCH   1   7
BRANCH   4  29
ATOM     29  O   UNL     1      34.807  97.061  10.386  1.00  0.00    -0.494 OA
BRANCH  29  30
ATOM     30  C   UNL     1      35.320  96.094   9.472  1.00  0.00     0.226 C 
ATOM     31  C   UNL     1      35.400  94.761  10.196  1.00  0.00     0.049 C 
ENDBRANCH  29  30
ENDBRANCH   4  29
TORSDOF 4
ENDMDL
MODEL 7
REMARK minimizedAffinity -8.91938114
REMARK CNNscore 0.151780486
REMARK CNNaffinity 5.16544771
REMARK SMILES C#Cc1cc2c(N3CCN(C(=O)Nc4ccc(OCC)cc4)CC3)ncnc2[nH]1
REMARK SMILES IDX 14 1 15 2 16 3 17 4 21 5 22 6 13 7 7 8 8 9 24 10 9 11 23 12
REMARK SMILES IDX 10 13 11 14 12 15 6 17 2 18 3 19 4 20 29 21 5 22 28 23 27 24
REMARK SMILES IDX 25 25 26 26 1 27 18 29 19 30 20 31
REMARK H PARENT 13 16 29 28
ROOT
ATOM      1  C   UNL     1      37.053  94.301  10.693  1.00  0.00     0.043 A 
ATOM      2  C   UNL     1      37.649  95.383  11.342  1.00  0.00     0.030 A 
ATOM      3  C   UNL     1      37.102  96.670  11.240  1.00  0.00     0.048 A 
ATOM      4  C   UNL     1      35.955  96.889  10.480  1.00  0.00     0.119 A 
ATOM      5  C   UNL     1      35.364  95.811   9.820  1.00  0.00     0.048 A 
ATOM      6  C   UNL     1      35.908  94.527   9.922  1.00  0.00     0.030 A 
ENDROOT
BRANCH   1   7
ATOM      7  N   UNL     1      37.557  92.986  10.738  1.00  0.00    -0.308 N 
ATOM      8  N   UNL     1      38.827  88.143  11.664  1.00  0.00    -0.352 N 
ATOM      9  C   UNL     1      37.845  88.190  10.561  1.00  0.00     0.139 C 
ATOM     10  C   UNL     1      39.557  89.416  11.824  1.00  0.00     0.139 C 
ATOM     11  C   UNL     1      36.890  89.388  10.692  1.00  0.00     0.143 C 
ATOM     12  C   UNL     1      38.623  90.639  11.921  1.00  0.00     0.143 C 
ATOM     13  N   UNL     1      37.598  90.664  10.861  1.00  0.00    -0.321 N 
ATOM     14  C   UNL     1      36.848  91.815  10.585  1.00  0.00     0.321 C 
ATOM     15  O   UNL     1      35.682  91.746  10.207  1.00  0.00    -0.248 OA
ATOM     16  H   UNL     1      38.554  92.893  10.637  1.00  0.00     0.171 HD
BRANCH   8  17
ATOM     17  C   UNL     1      38.326  87.593  12.854  1.00  0.00     0.141 A 
ATOM     18  C   UNL     1      41.842  87.123  16.437  1.00  0.00    -0.052 C 
ATOM     19  C   UNL     1      40.659  87.122  15.653  1.00  0.00     0.091 A 
ATOM     20  C   UNL     1      40.493  87.573  14.360  1.00  0.00     0.051 A 
ATOM     21  N   UNL     1      39.446  86.659  16.089  1.00  0.00    -0.333 N 
ATOM     22  C   UNL     1      39.130  87.361  13.992  1.00  0.00     0.063 A 
ATOM     23  C   UNL     1      38.510  86.812  15.105  1.00  0.00     0.143 A 
ATOM     24  N   UNL     1      37.219  86.480  15.230  1.00  0.00    -0.218 NA
ATOM     25  N   UNL     1      37.002  87.304  12.966  1.00  0.00    -0.219 NA
ATOM     26  C   UNL     1      36.535  86.771  14.113  1.00  0.00     0.226 A 
ATOM     27  C   UNL     1      42.843  87.125  17.100  1.00  0.00     0.011 C 
ATOM     28  H   UNL     1      39.250  86.277  17.002  1.00  0.00     0.169 HD
ENDBRANCH   8  17
ENDBRANCH   1   7
BRANCH   4  29
ATOM     29  O   UNL     1      35.323  98.088  10.299  1.00  0.00    -0.494 OA
BRANCH  29  30
ATOM     30  C   UNL     1      34.192  98.097   9.429  1.00  0.00     0.226 C 
ATOM     31  C   UNL     1      33.144  99.015  10.034  1.00  0.00     0.049 C 
ENDBRANCH  29  30
ENDBRANCH   4  29
TORSDOF 4
ENDMDL
MODEL 8
REMARK minimizedAffinity -10.306447
REMARK CNNscore 0.144078463
REMARK CNNaffinity 6.23839808
REMARK SMILES C#Cc1cc2c(N3CCN(C(=O)Nc4ccc(OCC)cc4)CC3)ncnc2[nH]1
REMARK SMILES IDX 14 1 15 2 16 3 17 4 21 5 22 6 13 7 7 8 8 9 24 10 9 11 23 12
REMARK SMILES IDX 10 13 11 14 12 15 6 17 2 18 3 19 4 20 29 21 5 22 28 23 27 24
REMARK SMILES IDX 25 25 26 26 1 27 18 29 19 30 20 31
REMARK H PARENT 13 16 29 28
ROOT
ATOM      1  C   UNL     1      31.820 100.457   8.996  1.00  0.00     0.043 A 
ATOM      2  C   UNL     1      32.324 100.189   7.723  1.00  0.00     0.030 A 
ATOM      3  C   UNL     1      33.287  99.188   7.530  1.00  0.00     0.048 A 
ATOM      4  C   UNL     1      33.761  98.449   8.611  1.00  0.00     0.119 A 
ATOM      5  C   UNL     1      33.267  98.723   9.887  1.00  0.00     0.048 A 
ATOM      6  C   UNL     1      32.306  99.721  10.081  1.00  0.00     0.030 A 
ENDROOT
BRANCH   1   7
ATOM      7  N   UNL     1      30.865 101.457   9.266  1.00  0.00    -0.308 N 
ATOM      8  N   UNL     1      26.795 104.359  10.238  1.00  0.00    -0.352 N 
ATOM      9  C   UNL     1      27.545 104.131  11.491  1.00  0.00     0.139 C 
ATOM     10  C   UNL     1      27.637 104.187   9.038  1.00  0.00     0.139 C 
ATOM     11  C   UNL     1      28.273 102.776  11.487  1.00  0.00     0.143 C 
ATOM     12  C   UNL     1      28.406 102.851   9.027  1.00  0.00     0.143 C 
ATOM     13  N   UNL     1      29.108 102.582  10.295  1.00  0.00    -0.321 N 
ATOM     14  C   UNL     1      30.093 101.591  10.399  1.00  0.00     0.321 C 
ATOM     15  O   UNL     1      30.250 100.947  11.433  1.00  0.00    -0.248 OA
ATOM     16  H   UNL     1      30.916 102.281   8.690  1.00  0.00     0.171 HD
BRANCH   8  17
ATOM     17  C   UNL     1      25.552 103.710  10.189  1.00  0.00     0.141 A 
ATOM     18  C   UNL     1      24.614 101.599   5.708  1.00  0.00    -0.052 C 
ATOM     19  C   UNL     1      24.583 102.077   7.043  1.00  0.00     0.091 A 
ATOM     20  C   UNL     1      25.553 102.792   7.715  1.00  0.00     0.051 A 
ATOM     21  N   UNL     1      23.539 101.883   7.908  1.00  0.00    -0.333 N 
ATOM     22  C   UNL     1      25.073 103.055   9.033  1.00  0.00     0.063 A 
ATOM     23  C   UNL     1      23.826 102.452   9.118  1.00  0.00     0.143 A 
ATOM     24  N   UNL     1      23.018 102.410  10.184  1.00  0.00    -0.218 NA
ATOM     25  N   UNL     1      24.770 103.649  11.301  1.00  0.00    -0.219 NA
ATOM     26  C   UNL     1      23.576 103.027  11.237  1.00  0.00     0.226 A 
ATOM     27  C   UNL     1      24.639 101.194   4.578  1.00  0.00     0.011 C 
ATOM     28  H   UNL     1      22.687 101.382   7.707  1.00  0.00     0.169 HD
ENDBRANCH   8  17
ENDBRANCH   1   7
BRANCH   4  29
ATOM     29  O   UNL     1      34.693  97.451   8.561  1.00  0.00    -0.494 OA
BRANCH  29  30
ATOM     30  C   UNL     1      35.116  96.897   9.805  1.00  0.00     0.226 C 
ATOM     31  C   UNL     1      34.788  95.414   9.794  1.00  0.00     0.049 C 
ENDBRANCH  29  30
ENDBRANCH   4  29
TORSDOF 4
ENDMDL
MODEL 9
REMARK minimizedAffinity -6.83792019
REMARK CNNscore 0.136560649
REMARK CNNaffinity 5.20118952
REMARK SMILES C#Cc1cc2c(N3CCN(C(=O)Nc4ccc(OCC)cc4)CC3)ncnc2[nH]1
REMARK SMILES IDX 14 1 15 2 16 3 17 4 21 5 22 6 13 7 7 8 8 9 24 10 9 11 23 12
REMARK SMILES IDX 10 13 11 14 12 15 6 17 2 18 3 19 4 20 29 21 5 22 28 23 27 24
REMARK SMILES IDX 25 25 26 26 1 27 18 29 19 30 20 31
REMARK H PARENT 13 16 29 28
ROOT
ATOM      1  C   UNL     1      38.970  90.329  11.655  1.00  0.00     0.043 A 
ATOM      2  C   UNL     1      37.726  89.831  11.265  1.00  0.00     0.030 A 
ATOM      3  C   UNL     1      36.688  90.701  10.901  1.00  0.00     0.048 A 
ATOM      4  C   UNL     1      36.882  92.080  10.929  1.00  0.00     0.119 A 
ATOM      5  C   UNL     1      38.122  92.580  11.330  1.00  0.00     0.048 A 
ATOM      6  C   UNL     1      39.158  91.714  11.693  1.00  0.00     0.030 A 
ENDROOT
BRANCH   1   7
ATOM      7  N   UNL     1      40.051  89.515  12.049  1.00  0.00    -0.308 N 
ATOM      8  N   UNL     1      43.973  87.121  14.243  1.00  0.00    -0.352 N 
ATOM      9  C   UNL     1      42.742  86.327  14.438  1.00  0.00     0.139 C 
ATOM     10  C   UNL     1      43.878  88.031  13.085  1.00  0.00     0.139 C 
ATOM     11  C   UNL     1      41.488  87.216  14.506  1.00  0.00     0.143 C 
ATOM     12  C   UNL     1      42.611  88.909  13.109  1.00  0.00     0.143 C 
ATOM     13  N   UNL     1      41.382  88.136  13.366  1.00  0.00    -0.321 N 
ATOM     14  C   UNL     1      40.109  88.674  13.138  1.00  0.00     0.321 C 
ATOM     15  O   UNL     1      39.149  88.372  13.841  1.00  0.00    -0.248 OA
ATOM     16  H   UNL     1      40.755  89.349  11.349  1.00  0.00     0.171 HD
BRANCH   8  17
ATOM     17  C   UNL     1      44.470  87.705  15.417  1.00  0.00     0.141 A 
ATOM     18  C   UNL     1      43.888  84.768  19.474  1.00  0.00    -0.052 C 
ATOM     19  C   UNL     1      44.182  85.801  18.546  1.00  0.00     0.091 A 
ATOM     20  C   UNL     1      43.950  85.818  17.187  1.00  0.00     0.051 A 
ATOM     21  N   UNL     1      44.777  86.989  18.880  1.00  0.00    -0.333 N 
ATOM     22  C   UNL     1      44.408  87.070  16.677  1.00  0.00     0.063 A 
ATOM     23  C   UNL     1      44.935  87.759  17.761  1.00  0.00     0.143 A 
ATOM     24  N   UNL     1      45.512  88.967  17.749  1.00  0.00    -0.218 NA
ATOM     25  N   UNL     1      45.087  88.917  15.368  1.00  0.00    -0.219 NA
ATOM     26  C   UNL     1      45.554  89.469  16.506  1.00  0.00     0.226 A 
ATOM     27  C   UNL     1      43.640  83.894  20.258  1.00  0.00     0.011 C 
ATOM     28  H   UNL     1      45.077  87.265  19.803  1.00  0.00     0.169 HD
ENDBRANCH   8  17
ENDBRANCH   1   7
BRANCH   4  29
ATOM     29  O   UNL     1      35.959  93.032  10.600  1.00  0.00    -0.494 OA
BRANCH  29  30
ATOM     30  C   UNL     1      36.459  94.315  10.227  1.00  0.00     0.226 C 
ATOM     31  C   UNL     1      35.269  95.227   9.982  1.00  0.00     0.049 C 
ENDBRANCH  29  30
ENDBRANCH   4  29
TORSDOF 4
ENDMDL
