MODEL 1
REMARK minimizedAffinity -8.99259567
REMARK CNNscore 0.527037203
REMARK CNNaffinity 7.62214518
REMARK SMILES CC(=N)Nc1ccc(-c2ncnc3cc(C4=CCN(C(=O)N5CCOCC5)CC4)sc23)cc1
REMARK SMILES IDX 9 1 10 2 11 3 12 4 13 5 14 6 15 7 30 8 31 9 8 10 5 11 6 12
REMARK SMILES IDX 33 13 7 14 32 15 4 16 2 17 3 18 1 19 16 22 17 23 29 24 18 25
REMARK SMILES IDX 28 26 19 27 20 28 21 29 22 30 23 31 27 32 24 33 26 34 25 35
REMARK H PARENT 3 20 4 21
ROOT
ATOM      1  C   UNL     1      37.105  94.390  10.781  1.00  0.00     0.091 A 
ATOM      2  N   UNL     1      38.283  94.942  11.164  1.00  0.00    -0.235 NA
ATOM      3  C   UNL     1      39.261  94.135  11.591  1.00  0.00     0.223 A 
ATOM      4  N   UNL     1      39.229  92.804  11.674  1.00  0.00    -0.235 NA
ATOM      5  C   UNL     1      38.063  92.250  11.268  1.00  0.00     0.086 A 
ATOM      6  C   UNL     1      37.802  90.850  11.240  1.00  0.00     0.049 A 
ATOM      7  C   UNL     1      36.547  90.511  10.766  1.00  0.00     0.033 A 
ATOM      8  S   UNL     1      35.687  91.963  10.389  1.00  0.00    -0.132 S 
ATOM      9  C   UNL     1      36.981  92.998  10.823  1.00  0.00     0.080 A 
ENDROOT
BRANCH   1  10
ATOM     10  C   UNL     1      36.064  95.315  10.329  1.00  0.00     0.002 A 
ATOM     11  C   UNL     1      34.030  97.165   9.541  1.00  0.00     0.039 A 
ATOM     12  C   UNL     1      33.871  95.779   9.365  1.00  0.00     0.027 A 
ATOM     13  C   UNL     1      35.229  97.605  10.101  1.00  0.00     0.027 A 
ATOM     14  C   UNL     1      34.865  94.870   9.757  1.00  0.00     0.012 A 
ATOM     15  C   UNL     1      36.224  96.698  10.497  1.00  0.00     0.012 A 
BRANCH  11  16
ATOM     16  N   UNL     1      32.991  98.020   9.126  1.00  0.00    -0.344 N 
ATOM     17  C   UNL     1      33.002  99.027   8.189  1.00  0.00     0.094 C 
ATOM     18  N   UNL     1      33.954  99.284   7.352  1.00  0.00    -0.289 NA
ATOM     19  C   UNL     1      31.772  99.912   8.133  1.00  0.00     0.087 C 
ATOM     20  H   UNL     1      33.717 100.086   6.758  1.00  0.00     0.189 HD
ATOM     21  H   UNL     1      32.143  97.908   9.668  1.00  0.00     0.168 HD
ENDBRANCH  11  16
ENDBRANCH   1  10
BRANCH   7  22
ATOM     22  C   UNL     1      35.994  89.179  10.613  1.00  0.00    -0.031 C 
ATOM     23  C   UNL     1      36.803  88.104  10.509  1.00  0.00    -0.001 C 
ATOM     24  C   UNL     1      34.501  88.893  10.582  1.00  0.00     0.058 C 
ATOM     25  C   UNL     1      36.357  86.678  10.331  1.00  0.00     0.149 C 
ATOM     26  C   UNL     1      34.182  87.542  11.215  1.00  0.00     0.126 C 
ATOM     27  N   UNL     1      34.946  86.454  10.609  1.00  0.00    -0.321 N 
BRANCH  27  28
ATOM     28  C   UNL     1      34.441  85.208  10.271  1.00  0.00     0.320 C 
ATOM     29  O   UNL     1      34.406  84.281  11.084  1.00  0.00    -0.248 OA
ATOM     30  N   UNL     1      34.012  85.037   8.957  1.00  0.00    -0.320 N 
ATOM     31  C   UNL     1      33.902  83.644   8.509  1.00  0.00     0.150 C 
ATOM     32  C   UNL     1      32.873  85.843   8.495  1.00  0.00     0.150 C 
ATOM     33  C   UNL     1      33.666  83.559   6.997  1.00  0.00     0.181 C 
ATOM     34  C   UNL     1      32.689  85.710   6.980  1.00  0.00     0.181 C 
ATOM     35  O   UNL     1      32.523  84.338   6.599  1.00  0.00    -0.378 OA
ENDBRANCH  27  28
ENDBRANCH   7  22
TORSDOF 4
ENDMDL
MODEL 2
REMARK minimizedAffinity -6.68954515
REMARK CNNscore 0.479304016
REMARK CNNaffinity 7.99907541
REMARK SMILES CC(=N)Nc1ccc(-c2ncnc3cc(C4=CCN(C(=O)N5CCOCC5)CC4)sc23)cc1
REMARK SMILES IDX 9 1 10 2 11 3 12 4 13 5 14 6 15 7 30 8 31 9 8 10 5 11 6 12
REMARK SMILES IDX 33 13 7 14 32 15 4 16 2 17 3 18 1 19 16 22 17 23 29 24 18 25
REMARK SMILES IDX 28 26 19 27 20 28 21 29 22 30 23 31 27 32 24 33 26 34 25 35
REMARK H PARENT 3 20 4 21
ROOT
ATOM      1  C   UNL     1      36.516  94.568  10.545  1.00  0.00     0.091 A 
ATOM      2  N   UNL     1      37.836  94.725  10.815  1.00  0.00    -0.235 NA
ATOM      3  C   UNL     1      38.322  95.967  10.935  1.00  0.00     0.223 A 
ATOM      4  N   UNL     1      37.643  97.111  10.837  1.00  0.00    -0.235 NA
ATOM      5  C   UNL     1      36.322  96.954  10.592  1.00  0.00     0.086 A 
ATOM      6  C   UNL     1      35.390  98.025  10.473  1.00  0.00     0.049 A 
ATOM      7  C   UNL     1      34.086  97.626  10.244  1.00  0.00     0.033 A 
ATOM      8  S   UNL     1      34.043  95.900  10.146  1.00  0.00    -0.132 S 
ATOM      9  C   UNL     1      35.721  95.712  10.435  1.00  0.00     0.080 A 
ENDROOT
BRANCH   1  10
ATOM     10  C   UNL     1      36.034  93.191  10.415  1.00  0.00     0.002 A 
ATOM     11  C   UNL     1      35.184  90.469  10.201  1.00  0.00     0.039 A 
ATOM     12  C   UNL     1      35.125  91.345   9.104  1.00  0.00     0.027 A 
ATOM     13  C   UNL     1      35.659  90.985  11.407  1.00  0.00     0.027 A 
ATOM     14  C   UNL     1      35.548  92.679   9.205  1.00  0.00     0.012 A 
ATOM     15  C   UNL     1      36.085  92.317  11.511  1.00  0.00     0.012 A 
BRANCH  11  16
ATOM     16  N   UNL     1      34.745  89.142  10.027  1.00  0.00    -0.344 N 
ATOM     17  C   UNL     1      33.626  88.514  10.524  1.00  0.00     0.094 C 
ATOM     18  N   UNL     1      32.634  89.082  11.127  1.00  0.00    -0.289 NA
ATOM     19  C   UNL     1      33.555  87.011  10.333  1.00  0.00     0.087 C 
ATOM     20  H   UNL     1      31.924  88.393  11.399  1.00  0.00     0.189 HD
ATOM     21  H   UNL     1      35.408  88.566   9.523  1.00  0.00     0.168 HD
ENDBRANCH  11  16
ENDBRANCH   1  10
BRANCH   7  22
ATOM     22  C   UNL     1      32.920  98.476  10.086  1.00  0.00    -0.031 C 
ATOM     23  C   UNL     1      32.821  99.643  10.756  1.00  0.00    -0.001 C 
ATOM     24  C   UNL     1      31.762  98.141   9.159  1.00  0.00     0.058 C 
ATOM     25  C   UNL     1      31.663 100.601  10.691  1.00  0.00     0.149 C 
ATOM     26  C   UNL     1      31.151  99.402   8.557  1.00  0.00     0.126 C 
ATOM     27  N   UNL     1      30.753 100.366   9.580  1.00  0.00    -0.321 N 
BRANCH  27  28
ATOM     28  C   UNL     1      29.571 101.089   9.588  1.00  0.00     0.320 C 
ATOM     29  O   UNL     1      28.693 100.904   8.741  1.00  0.00    -0.248 OA
ATOM     30  N   UNL     1      29.434 102.064  10.573  1.00  0.00    -0.320 N 
ATOM     31  C   UNL     1      28.414 103.086  10.309  1.00  0.00     0.150 C 
ATOM     32  C   UNL     1      29.406 101.625  11.976  1.00  0.00     0.150 C 
ATOM     33  C   UNL     1      28.505 104.240  11.313  1.00  0.00     0.181 C 
ATOM     34  C   UNL     1      29.495 102.824  12.925  1.00  0.00     0.181 C 
ATOM     35  O   UNL     1      28.441 103.763  12.669  1.00  0.00    -0.378 OA
ENDBRANCH  27  28
ENDBRANCH   7  22
TORSDOF 4
ENDMDL
MODEL 3
REMARK minimizedAffinity -7.04773235
REMARK CNNscore 0.387979627
REMARK CNNaffinity 7.82287073
REMARK SMILES CC(=N)Nc1ccc(-c2ncnc3cc(C4=CCN(C(=O)N5CCOCC5)CC4)sc23)cc1
REMARK SMILES IDX 9 1 10 2 11 3 12 4 13 5 14 6 15 7 30 8 31 9 8 10 5 11 6 12
REMARK SMILES IDX 33 13 7 14 32 15 4 16 2 17 3 18 1 19 16 22 17 23 29 24 18 25
REMARK SMILES IDX 28 26 19 27 20 28 21 29 22 30 23 31 27 32 24 33 26 34 25 35
REMARK H PARENT 3 20 4 21
ROOT
ATOM      1  C   UNL     1      36.909  95.272  10.639  1.00  0.00     0.091 A 
ATOM      2  N   UNL     1      38.120  95.811  10.933  1.00  0.00    -0.235 NA
ATOM      3  C   UNL     1      39.083  95.007  11.397  1.00  0.00     0.223 A 
ATOM      4  N   UNL     1      39.008  93.690  11.597  1.00  0.00    -0.235 NA
ATOM      5  C   UNL     1      37.809  93.148  11.281  1.00  0.00     0.086 A 
ATOM      6  C   UNL     1      37.498  91.761  11.385  1.00  0.00     0.049 A 
ATOM      7  C   UNL     1      36.216  91.431  10.985  1.00  0.00     0.033 A 
ATOM      8  S   UNL     1      35.394  92.877  10.509  1.00  0.00    -0.132 S 
ATOM      9  C   UNL     1      36.738  93.895  10.808  1.00  0.00     0.080 A 
ENDROOT
BRANCH   1  10
ATOM     10  C   UNL     1      35.886  96.193  10.142  1.00  0.00     0.002 A 
ATOM     11  C   UNL     1      33.836  97.983   9.262  1.00  0.00     0.039 A 
ATOM     12  C   UNL     1      34.205  96.858   8.504  1.00  0.00     0.027 A 
ATOM     13  C   UNL     1      34.524  98.203  10.456  1.00  0.00     0.027 A 
ATOM     14  C   UNL     1      35.205  95.975   8.937  1.00  0.00     0.012 A 
ATOM     15  C   UNL     1      35.522  97.321  10.893  1.00  0.00     0.012 A 
BRANCH  11  16
ATOM     16  N   UNL     1      32.822  98.826   8.768  1.00  0.00    -0.344 N 
ATOM     17  C   UNL     1      32.869  99.759   7.757  1.00  0.00     0.094 C 
ATOM     18  N   UNL     1      33.837  99.932   6.918  1.00  0.00    -0.289 NA
ATOM     19  C   UNL     1      31.659 100.662   7.615  1.00  0.00     0.087 C 
ATOM     20  H   UNL     1      33.627 100.691   6.262  1.00  0.00     0.189 HD
ATOM     21  H   UNL     1      31.964  98.773   9.303  1.00  0.00     0.168 HD
ENDBRANCH  11  16
ENDBRANCH   1  10
BRANCH   7  22
ATOM     22  C   UNL     1      35.611  90.113  10.967  1.00  0.00    -0.031 C 
ATOM     23  C   UNL     1      35.980  89.172  11.862  1.00  0.00    -0.001 C 
ATOM     24  C   UNL     1      34.526  89.704   9.984  1.00  0.00     0.058 C 
ATOM     25  C   UNL     1      35.443  87.769  11.939  1.00  0.00     0.149 C 
ATOM     26  C   UNL     1      33.546  88.720  10.615  1.00  0.00     0.126 C 
ATOM     27  N   UNL     1      34.221  87.554  11.179  1.00  0.00    -0.321 N 
BRANCH  27  28
ATOM     28  C   UNL     1      33.797  86.240  11.054  1.00  0.00     0.320 C 
ATOM     29  O   UNL     1      32.624  85.917  11.259  1.00  0.00    -0.248 OA
ATOM     30  N   UNL     1      34.763  85.294  10.725  1.00  0.00    -0.320 N 
ATOM     31  C   UNL     1      34.406  83.901  11.023  1.00  0.00     0.150 C 
ATOM     32  C   UNL     1      35.425  85.411   9.418  1.00  0.00     0.150 C 
ATOM     33  C   UNL     1      35.610  82.967  10.860  1.00  0.00     0.181 C 
ATOM     34  C   UNL     1      36.614  84.450   9.318  1.00  0.00     0.181 C 
ATOM     35  O   UNL     1      36.203  83.096   9.555  1.00  0.00    -0.378 OA
ENDBRANCH  27  28
ENDBRANCH   7  22
TORSDOF 4
ENDMDL
MODEL 4
REMARK minimizedAffinity -11.3843613
REMARK CNNscore 0.229069576
REMARK CNNaffinity 7.26857758
REMARK SMILES CC(=N)Nc1ccc(-c2ncnc3cc(C4=CCN(C(=O)N5CCOCC5)CC4)sc23)cc1
REMARK SMILES IDX 9 1 10 2 11 3 12 4 13 5 14 6 15 7 30 8 31 9 8 10 5 11 6 12
REMARK SMILES IDX 33 13 7 14 32 15 4 16 2 17 3 18 1 19 16 22 17 23 29 24 18 25
REMARK SMILES IDX 28 26 19 27 20 28 21 29 22 30 23 31 27 32 24 33 26 34 25 35
REMARK H PARENT 3 20 4 21
ROOT
ATOM      1  C   UNL     1      34.838  98.033   8.410  1.00  0.00     0.091 A 
ATOM      2  N   UNL     1      35.507  98.271   7.254  1.00  0.00    -0.235 NA
ATOM      3  C   UNL     1      35.137  99.314   6.502  1.00  0.00     0.223 A 
ATOM      4  N   UNL     1      34.169 100.194   6.764  1.00  0.00    -0.235 NA
ATOM      5  C   UNL     1      33.519  99.973   7.930  1.00  0.00     0.086 A 
ATOM      6  C   UNL     1      32.468 100.792   8.435  1.00  0.00     0.049 A 
ATOM      7  C   UNL     1      31.964 100.386   9.658  1.00  0.00     0.033 A 
ATOM      8  S   UNL     1      32.796  98.953  10.151  1.00  0.00    -0.132 S 
ATOM      9  C   UNL     1      33.813  98.910   8.774  1.00  0.00     0.080 A 
ENDROOT
BRANCH   1  10
ATOM     10  C   UNL     1      35.275  96.876   9.193  1.00  0.00     0.002 A 
ATOM     11  C   UNL     1      36.225  94.631  10.689  1.00  0.00     0.039 A 
ATOM     12  C   UNL     1      35.140  94.517   9.803  1.00  0.00     0.027 A 
ATOM     13  C   UNL     1      36.812  95.890  10.823  1.00  0.00     0.027 A 
ATOM     14  C   UNL     1      34.677  95.616   9.063  1.00  0.00     0.012 A 
ATOM     15  C   UNL     1      36.353  96.989  10.083  1.00  0.00     0.012 A 
BRANCH  11  16
ATOM     16  N   UNL     1      36.639  93.487  11.397  1.00  0.00    -0.344 N 
ATOM     17  C   UNL     1      37.903  93.098  11.778  1.00  0.00     0.094 C 
ATOM     18  N   UNL     1      38.978  93.813  11.709  1.00  0.00    -0.289 NA
ATOM     19  C   UNL     1      38.038  91.696  12.341  1.00  0.00     0.087 C 
ATOM     20  H   UNL     1      39.791  93.293  12.057  1.00  0.00     0.189 HD
ATOM     21  H   UNL     1      35.886  92.833  11.573  1.00  0.00     0.168 HD
ENDBRANCH  11  16
ENDBRANCH   1  10
BRANCH   7  22
ATOM     22  C   UNL     1      30.906 101.014  10.426  1.00  0.00    -0.031 C 
ATOM     23  C   UNL     1      31.166 101.591  11.618  1.00  0.00    -0.001 C 
ATOM     24  C   UNL     1      29.464 101.093   9.951  1.00  0.00     0.058 C 
ATOM     25  C   UNL     1      30.159 102.257  12.514  1.00  0.00     0.149 C 
ATOM     26  C   UNL     1      28.793 102.380  10.422  1.00  0.00     0.126 C 
ATOM     27  N   UNL     1      28.888 102.554  11.869  1.00  0.00    -0.321 N 
BRANCH  27  28
ATOM     28  C   UNL     1      27.862 102.983  12.696  1.00  0.00     0.320 C 
ATOM     29  O   UNL     1      28.033 103.151  13.906  1.00  0.00    -0.248 OA
ATOM     30  N   UNL     1      26.616 103.179  12.106  1.00  0.00    -0.320 N 
ATOM     31  C   UNL     1      25.478 103.200  13.033  1.00  0.00     0.150 C 
ATOM     32  C   UNL     1      26.497 104.228  11.083  1.00  0.00     0.150 C 
ATOM     33  C   UNL     1      24.143 103.172  12.281  1.00  0.00     0.181 C 
ATOM     34  C   UNL     1      25.141 104.148  10.374  1.00  0.00     0.181 C 
ATOM     35  O   UNL     1      24.062 104.236  11.314  1.00  0.00    -0.378 OA
ENDBRANCH  27  28
ENDBRANCH   7  22
TORSDOF 4
ENDMDL
MODEL 5
REMARK minimizedAffinity -10.1623192
REMARK CNNscore 0.213360578
REMARK CNNaffinity 7.22540712
REMARK SMILES CC(=N)Nc1ccc(-c2ncnc3cc(C4=CCN(C(=O)N5CCOCC5)CC4)sc23)cc1
REMARK SMILES IDX 9 1 10 2 11 3 12 4 13 5 14 6 15 7 30 8 31 9 8 10 5 11 6 12
REMARK SMILES IDX 33 13 7 14 32 15 4 16 2 17 3 18 1 19 16 22 17 23 29 24 18 25
REMARK SMILES IDX 28 26 19 27 20 28 21 29 22 30 23 31 27 32 24 33 26 34 25 35
REMARK H PARENT 3 20 4 21
ROOT
ATOM      1  C   UNL     1      37.636  91.969  11.195  1.00  0.00     0.091 A 
ATOM      2  N   UNL     1      38.942  91.864  11.547  1.00  0.00    -0.235 NA
ATOM      3  C   UNL     1      39.431  90.653  11.838  1.00  0.00     0.223 A 
ATOM      4  N   UNL     1      38.778  89.490  11.807  1.00  0.00    -0.235 NA
ATOM      5  C   UNL     1      37.482  89.591  11.431  1.00  0.00     0.086 A 
ATOM      6  C   UNL     1      36.592  88.487  11.299  1.00  0.00     0.049 A 
ATOM      7  C   UNL     1      35.318  88.826  10.881  1.00  0.00     0.033 A 
ATOM      8  S   UNL     1      35.237  90.542  10.687  1.00  0.00    -0.132 S 
ATOM      9  C   UNL     1      36.872  90.801  11.124  1.00  0.00     0.080 A 
ENDROOT
BRANCH   1  10
ATOM     10  C   UNL     1      37.146  93.315  10.893  1.00  0.00     0.002 A 
ATOM     11  C   UNL     1      36.187  95.966  10.406  1.00  0.00     0.039 A 
ATOM     12  C   UNL     1      35.532  94.839   9.879  1.00  0.00     0.027 A 
ATOM     13  C   UNL     1      37.336  95.741  11.165  1.00  0.00     0.027 A 
ATOM     14  C   UNL     1      35.997  93.538  10.122  1.00  0.00     0.012 A 
ATOM     15  C   UNL     1      37.802  94.441  11.413  1.00  0.00     0.012 A 
BRANCH  11  16
ATOM     16  N   UNL     1      35.664  97.242  10.124  1.00  0.00    -0.344 N 
ATOM     17  C   UNL     1      34.355  97.648   9.996  1.00  0.00     0.094 C 
ATOM     18  N   UNL     1      33.306  96.952  10.288  1.00  0.00    -0.289 NA
ATOM     19  C   UNL     1      34.132  99.052   9.468  1.00  0.00     0.087 C 
ATOM     20  H   UNL     1      32.447  97.482  10.103  1.00  0.00     0.189 HD
ATOM     21  H   UNL     1      36.379  97.927   9.912  1.00  0.00     0.168 HD
ENDBRANCH  11  16
ENDBRANCH   1  10
BRANCH   7  22
ATOM     22  C   UNL     1      34.200  87.931  10.649  1.00  0.00    -0.031 C 
ATOM     23  C   UNL     1      34.355  86.594  10.748  1.00  0.00    -0.001 C 
ATOM     24  C   UNL     1      32.799  88.414  10.309  1.00  0.00     0.058 C 
ATOM     25  C   UNL     1      33.284  85.563  10.517  1.00  0.00     0.149 C 
ATOM     26  C   UNL     1      31.736  87.490  10.895  1.00  0.00     0.126 C 
ATOM     27  N   UNL     1      31.931  86.099  10.494  1.00  0.00    -0.321 N 
BRANCH  27  28
ATOM     28  C   UNL     1      30.930  85.231  10.090  1.00  0.00     0.320 C 
ATOM     29  O   UNL     1      30.710  84.174  10.687  1.00  0.00    -0.248 OA
ATOM     30  N   UNL     1      30.209  85.585   8.953  1.00  0.00    -0.320 N 
ATOM     31  C   UNL     1      29.484  84.488   8.301  1.00  0.00     0.150 C 
ATOM     32  C   UNL     1      29.397  86.810   9.007  1.00  0.00     0.150 C 
ATOM     33  C   UNL     1      28.929  84.915   6.938  1.00  0.00     0.181 C 
ATOM     34  C   UNL     1      28.870  87.178   7.617  1.00  0.00     0.181 C 
ATOM     35  O   UNL     1      28.116  86.098   7.048  1.00  0.00    -0.378 OA
ENDBRANCH  27  28
ENDBRANCH   7  22
TORSDOF 4
ENDMDL
MODEL 6
REMARK minimizedAffinity -8.9642868
REMARK CNNscore 0.207405046
REMARK CNNaffinity 5.8258357
REMARK SMILES CC(=N)Nc1ccc(-c2ncnc3cc(C4=CCN(C(=O)N5CCOCC5)CC4)sc23)cc1
REMARK SMILES IDX 9 1 10 2 11 3 12 4 13 5 14 6 15 7 30 8 31 9 8 10 5 11 6 12
REMARK SMILES IDX 33 13 7 14 32 15 4 16 2 17 3 18 1 19 16 22 17 23 29 24 18 25
REMARK SMILES IDX 28 26 19 27 20 28 21 29 22 30 23 31 27 32 24 33 26 34 25 35
REMARK H PARENT 3 20 4 21
ROOT
ATOM      1  C   UNL     1      38.629  88.072  11.779  1.00  0.00     0.091 A 
ATOM      2  N   UNL     1      39.732  87.600  12.412  1.00  0.00    -0.235 NA
ATOM      3  C   UNL     1      40.652  88.476  12.834  1.00  0.00     0.223 A 
ATOM      4  N   UNL     1      40.611  89.805  12.723  1.00  0.00    -0.235 NA
ATOM      5  C   UNL     1      39.499  90.277  12.115  1.00  0.00     0.086 A 
ATOM      6  C   UNL     1      39.219  91.659  11.905  1.00  0.00     0.049 A 
ATOM      7  C   UNL     1      38.010  91.909  11.281  1.00  0.00     0.033 A 
ATOM      8  S   UNL     1      37.245  90.398  10.929  1.00  0.00    -0.132 S 
ATOM      9  C   UNL     1      38.493  89.454  11.625  1.00  0.00     0.080 A 
ENDROOT
BRANCH   1  10
ATOM     10  C   UNL     1      37.656  87.075  11.329  1.00  0.00     0.002 A 
ATOM     11  C   UNL     1      35.753  85.173  10.357  1.00  0.00     0.039 A 
ATOM     12  C   UNL     1      35.526  85.903  11.536  1.00  0.00     0.027 A 
ATOM     13  C   UNL     1      36.955  85.400   9.686  1.00  0.00     0.027 A 
ATOM     14  C   UNL     1      36.454  86.841  12.011  1.00  0.00     0.012 A 
ATOM     15  C   UNL     1      37.885  86.340  10.156  1.00  0.00     0.012 A 
BRANCH  11  16
ATOM     16  N   UNL     1      34.777  84.249   9.938  1.00  0.00    -0.344 N 
ATOM     17  C   UNL     1      33.799  84.378   8.978  1.00  0.00     0.094 C 
ATOM     18  N   UNL     1      33.687  85.342   8.124  1.00  0.00    -0.289 NA
ATOM     19  C   UNL     1      32.762  83.273   8.919  1.00  0.00     0.087 C 
ATOM     20  H   UNL     1      32.872  85.203   7.516  1.00  0.00     0.189 HD
ATOM     21  H   UNL     1      34.766  83.402  10.493  1.00  0.00     0.168 HD
ENDBRANCH  11  16
ENDBRANCH   1  10
BRANCH   7  22
ATOM     22  C   UNL     1      37.446  93.201  10.941  1.00  0.00    -0.031 C 
ATOM     23  C   UNL     1      36.149  93.317  10.586  1.00  0.00    -0.001 C 
ATOM     24  C   UNL     1      38.242  94.496  10.980  1.00  0.00     0.058 C 
ATOM     25  C   UNL     1      35.451  94.591  10.196  1.00  0.00     0.149 C 
ATOM     26  C   UNL     1      37.364  95.675  11.390  1.00  0.00     0.126 C 
ATOM     27  N   UNL     1      36.181  95.803  10.543  1.00  0.00    -0.321 N 
BRANCH  27  28
ATOM     28  C   UNL     1      35.681  96.990  10.033  1.00  0.00     0.320 C 
ATOM     29  O   UNL     1      36.426  97.905   9.672  1.00  0.00    -0.248 OA
ATOM     30  N   UNL     1      34.296  97.122   9.984  1.00  0.00    -0.320 N 
ATOM     31  C   UNL     1      33.799  98.498   9.867  1.00  0.00     0.150 C 
ATOM     32  C   UNL     1      33.548  96.204   9.113  1.00  0.00     0.150 C 
ATOM     33  C   UNL     1      32.281  98.565  10.067  1.00  0.00     0.181 C 
ATOM     34  C   UNL     1      32.040  96.323   9.358  1.00  0.00     0.181 C 
ATOM     35  O   UNL     1      31.593  97.673   9.171  1.00  0.00    -0.378 OA
ENDBRANCH  27  28
ENDBRANCH   7  22
TORSDOF 4
ENDMDL
MODEL 7
REMARK minimizedAffinity -9.28882122
REMARK CNNscore 0.196390674
REMARK CNNaffinity 5.95788383
REMARK SMILES CC(=N)Nc1ccc(-c2ncnc3cc(C4=CCN(C(=O)N5CCOCC5)CC4)sc23)cc1
REMARK SMILES IDX 9 1 10 2 11 3 12 4 13 5 14 6 15 7 30 8 31 9 8 10 5 11 6 12
REMARK SMILES IDX 33 13 7 14 32 15 4 16 2 17 3 18 1 19 16 22 17 23 29 24 18 25
REMARK SMILES IDX 28 26 19 27 20 28 21 29 22 30 23 31 27 32 24 33 26 34 25 35
REMARK H PARENT 3 20 4 21
ROOT
ATOM      1  C   UNL     1      38.563  88.241  12.329  1.00  0.00     0.091 A 
ATOM      2  N   UNL     1      39.728  87.841  12.898  1.00  0.00    -0.235 NA
ATOM      3  C   UNL     1      40.700  88.744  13.071  1.00  0.00     0.223 A 
ATOM      4  N   UNL     1      40.660  90.041  12.761  1.00  0.00    -0.235 NA
ATOM      5  C   UNL     1      39.490  90.446  12.218  1.00  0.00     0.086 A 
ATOM      6  C   UNL     1      39.202  91.787  11.830  1.00  0.00     0.049 A 
ATOM      7  C   UNL     1      37.931  91.973  11.317  1.00  0.00     0.033 A 
ATOM      8  S   UNL     1      37.114  90.450  11.293  1.00  0.00    -0.132 S 
ATOM      9  C   UNL     1      38.424  89.588  11.980  1.00  0.00     0.080 A 
ENDROOT
BRANCH   1  10
ATOM     10  C   UNL     1      37.533  87.216  12.154  1.00  0.00     0.002 A 
ATOM     11  C   UNL     1      35.569  85.154  11.883  1.00  0.00     0.039 A 
ATOM     12  C   UNL     1      36.256  85.665  10.769  1.00  0.00     0.027 A 
ATOM     13  C   UNL     1      35.872  85.705  13.129  1.00  0.00     0.027 A 
ATOM     14  C   UNL     1      37.225  86.672  10.900  1.00  0.00     0.012 A 
ATOM     15  C   UNL     1      36.841  86.709  13.264  1.00  0.00     0.012 A 
BRANCH  11  16
ATOM     16  N   UNL     1      34.612  84.142  11.678  1.00  0.00    -0.344 N 
ATOM     17  C   UNL     1      33.270  84.246  11.389  1.00  0.00     0.094 C 
ATOM     18  N   UNL     1      32.638  85.327  11.068  1.00  0.00    -0.289 NA
ATOM     19  C   UNL     1      32.465  82.963  11.447  1.00  0.00     0.087 C 
ATOM     20  H   UNL     1      31.644  85.138  10.900  1.00  0.00     0.189 HD
ATOM     21  H   UNL     1      34.972  83.212  11.851  1.00  0.00     0.168 HD
ENDBRANCH  11  16
ENDBRANCH   1  10
BRANCH   7  22
ATOM     22  C   UNL     1      37.345  93.215  10.847  1.00  0.00    -0.031 C 
ATOM     23  C   UNL     1      36.096  93.239  10.336  1.00  0.00    -0.001 C 
ATOM     24  C   UNL     1      38.061  94.554  10.915  1.00  0.00     0.058 C 
ATOM     25  C   UNL     1      35.385  94.452   9.803  1.00  0.00     0.149 C 
ATOM     26  C   UNL     1      37.080  95.697  11.157  1.00  0.00     0.126 C 
ATOM     27  N   UNL     1      36.002  95.718  10.171  1.00  0.00    -0.321 N 
BRANCH  27  28
ATOM     28  C   UNL     1      35.506  96.851   9.546  1.00  0.00     0.320 C 
ATOM     29  O   UNL     1      36.227  97.581   8.862  1.00  0.00    -0.248 OA
ATOM     30  N   UNL     1      34.163  97.150   9.758  1.00  0.00    -0.320 N 
ATOM     31  C   UNL     1      33.775  98.537   9.470  1.00  0.00     0.150 C 
ATOM     32  C   UNL     1      33.158  96.197   9.265  1.00  0.00     0.150 C 
ATOM     33  C   UNL     1      32.354  98.835   9.962  1.00  0.00     0.181 C 
ATOM     34  C   UNL     1      31.763  96.553   9.787  1.00  0.00     0.181 C 
ATOM     35  O   UNL     1      31.405  97.895   9.426  1.00  0.00    -0.378 OA
ENDBRANCH  27  28
ENDBRANCH   7  22
TORSDOF 4
ENDMDL
MODEL 8
REMARK minimizedAffinity -11.4189329
REMARK CNNscore 0.191256657
REMARK CNNaffinity 7.44095755
REMARK SMILES CC(=N)Nc1ccc(-c2ncnc3cc(C4=CCN(C(=O)N5CCOCC5)CC4)sc23)cc1
REMARK SMILES IDX 9 1 10 2 11 3 12 4 13 5 14 6 15 7 30 8 31 9 8 10 5 11 6 12
REMARK SMILES IDX 33 13 7 14 32 15 4 16 2 17 3 18 1 19 16 22 17 23 29 24 18 25
REMARK SMILES IDX 28 26 19 27 20 28 21 29 22 30 23 31 27 32 24 33 26 34 25 35
REMARK H PARENT 3 20 4 21
ROOT
ATOM      1  C   UNL     1      32.798 100.203   8.694  1.00  0.00     0.091 A 
ATOM      2  N   UNL     1      32.813 100.853   7.504  1.00  0.00    -0.235 NA
ATOM      3  C   UNL     1      33.641 100.417   6.546  1.00  0.00     0.223 A 
ATOM      4  N   UNL     1      34.470  99.374   6.610  1.00  0.00    -0.235 NA
ATOM      5  C   UNL     1      34.437  98.710   7.789  1.00  0.00     0.086 A 
ATOM      6  C   UNL     1      35.212  97.551   8.084  1.00  0.00     0.049 A 
ATOM      7  C   UNL     1      34.998  97.027   9.346  1.00  0.00     0.033 A 
ATOM      8  S   UNL     1      33.844  98.017  10.170  1.00  0.00    -0.132 S 
ATOM      9  C   UNL     1      33.628  99.089   8.852  1.00  0.00     0.080 A 
ENDROOT
BRANCH   1  10
ATOM     10  C   UNL     1      31.882 100.722   9.712  1.00  0.00     0.002 A 
ATOM     11  C   UNL     1      30.052 101.799  11.628  1.00  0.00     0.039 A 
ATOM     12  C   UNL     1      31.436 101.774  11.868  1.00  0.00     0.027 A 
ATOM     13  C   UNL     1      29.602 101.261  10.421  1.00  0.00     0.027 A 
ATOM     14  C   UNL     1      32.337 101.253  10.926  1.00  0.00     0.012 A 
ATOM     15  C   UNL     1      30.500 100.741   9.477  1.00  0.00     0.012 A 
BRANCH  11  16
ATOM     16  N   UNL     1      29.206 102.339  12.615  1.00  0.00    -0.344 N 
ATOM     17  C   UNL     1      28.392 103.448  12.565  1.00  0.00     0.094 C 
ATOM     18  N   UNL     1      28.101 104.137  11.511  1.00  0.00    -0.289 NA
ATOM     19  C   UNL     1      27.774 103.891  13.877  1.00  0.00     0.087 C 
ATOM     20  H   UNL     1      27.472 104.915  11.740  1.00  0.00     0.189 HD
ATOM     21  H   UNL     1      29.287 101.870  13.509  1.00  0.00     0.168 HD
ENDBRANCH  11  16
ENDBRANCH   1  10
BRANCH   7  22
ATOM     22  C   UNL     1      35.626  95.857   9.931  1.00  0.00    -0.031 C 
ATOM     23  C   UNL     1      35.251  94.615   9.562  1.00  0.00    -0.001 C 
ATOM     24  C   UNL     1      36.744  95.936  10.959  1.00  0.00     0.058 C 
ATOM     25  C   UNL     1      35.811  93.327  10.102  1.00  0.00     0.149 C 
ATOM     26  C   UNL     1      37.724  94.778  10.803  1.00  0.00     0.126 C 
ATOM     27  N   UNL     1      37.056  93.480  10.840  1.00  0.00    -0.321 N 
BRANCH  27  28
ATOM     28  C   UNL     1      37.508  92.362  11.524  1.00  0.00     0.320 C 
ATOM     29  O   UNL     1      38.323  92.452  12.446  1.00  0.00    -0.248 OA
ATOM     30  N   UNL     1      37.029  91.126  11.098  1.00  0.00    -0.320 N 
ATOM     31  C   UNL     1      37.824  89.966  11.518  1.00  0.00     0.150 C 
ATOM     32  C   UNL     1      35.588  90.865  11.224  1.00  0.00     0.150 C 
ATOM     33  C   UNL     1      37.369  88.687  10.806  1.00  0.00     0.181 C 
ATOM     34  C   UNL     1      35.200  89.574  10.497  1.00  0.00     0.181 C 
ATOM     35  O   UNL     1      35.959  88.459  10.985  1.00  0.00    -0.378 OA
ENDBRANCH  27  28
ENDBRANCH   7  22
TORSDOF 4
ENDMDL
MODEL 9
REMARK minimizedAffinity -7.16532373
REMARK CNNscore 0.187465131
REMARK CNNaffinity 7.42508459
REMARK SMILES CC(=N)Nc1ccc(-c2ncnc3cc(C4=CCN(C(=O)N5CCOCC5)CC4)sc23)cc1
REMARK SMILES IDX 9 1 10 2 11 3 12 4 13 5 14 6 15 7 30 8 31 9 8 10 5 11 6 12
REMARK SMILES IDX 33 13 7 14 32 15 4 16 2 17 3 18 1 19 16 22 17 23 29 24 18 25
REMARK SMILES IDX 28 26 19 27 20 28 21 29 22 30 23 31 27 32 24 33 26 34 25 35
REMARK H PARENT 3 20 4 21
ROOT
ATOM      1  C   UNL     1      37.738  91.139  11.300  1.00  0.00     0.091 A 
ATOM      2  N   UNL     1      38.959  91.138  11.893  1.00  0.00    -0.235 NA
ATOM      3  C   UNL     1      39.585  92.306  12.072  1.00  0.00     0.223 A 
ATOM      4  N   UNL     1      39.136  93.520  11.747  1.00  0.00    -0.235 NA
ATOM      5  C   UNL     1      37.908  93.524  11.179  1.00  0.00     0.086 A 
ATOM      6  C   UNL     1      37.212  94.699  10.772  1.00  0.00     0.049 A 
ATOM      7  C   UNL     1      35.959  94.463  10.235  1.00  0.00     0.033 A 
ATOM      8  S   UNL     1      35.676  92.758  10.215  1.00  0.00    -0.132 S 
ATOM      9  C   UNL     1      37.181  92.367  10.934  1.00  0.00     0.080 A 
ENDROOT
BRANCH   1  10
ATOM     10  C   UNL     1      37.097  89.835  11.120  1.00  0.00     0.002 A 
ATOM     11  C   UNL     1      35.820  87.288  10.868  1.00  0.00     0.039 A 
ATOM     12  C   UNL     1      37.135  87.499  10.418  1.00  0.00     0.027 A 
ATOM     13  C   UNL     1      35.154  88.378  11.429  1.00  0.00     0.027 A 
ATOM     14  C   UNL     1      37.765  88.746  10.546  1.00  0.00     0.012 A 
ATOM     15  C   UNL     1      35.782  89.625  11.562  1.00  0.00     0.012 A 
BRANCH  11  16
ATOM     16  N   UNL     1      35.251  86.010  10.709  1.00  0.00    -0.344 N 
ATOM     17  C   UNL     1      34.020  85.540  11.108  1.00  0.00     0.094 C 
ATOM     18  N   UNL     1      33.043  86.249  11.570  1.00  0.00    -0.289 NA
ATOM     19  C   UNL     1      33.794  84.046  10.981  1.00  0.00     0.087 C 
ATOM     20  H   UNL     1      32.233  85.661  11.793  1.00  0.00     0.189 HD
ATOM     21  H   UNL     1      35.891  85.335  10.309  1.00  0.00     0.168 HD
ENDBRANCH  11  16
ENDBRANCH   1  10
BRANCH   7  22
ATOM     22  C   UNL     1      35.014  95.447   9.742  1.00  0.00    -0.031 C 
ATOM     23  C   UNL     1      35.374  96.333   8.789  1.00  0.00    -0.001 C 
ATOM     24  C   UNL     1      33.576  95.541  10.227  1.00  0.00     0.058 C 
ATOM     25  C   UNL     1      34.497  97.407   8.207  1.00  0.00     0.149 C 
ATOM     26  C   UNL     1      32.641  95.993   9.109  1.00  0.00     0.126 C 
ATOM     27  N   UNL     1      33.079  97.244   8.495  1.00  0.00    -0.321 N 
BRANCH  27  28
ATOM     28  C   UNL     1      32.255  98.304   8.154  1.00  0.00     0.320 C 
ATOM     29  O   UNL     1      31.494  98.248   7.185  1.00  0.00    -0.248 OA
ATOM     30  N   UNL     1      32.353  99.454   8.934  1.00  0.00    -0.320 N 
ATOM     31  C   UNL     1      31.824 100.678   8.318  1.00  0.00     0.150 C 
ATOM     32  C   UNL     1      31.976  99.359  10.351  1.00  0.00     0.150 C 
ATOM     33  C   UNL     1      32.194 101.921   9.135  1.00  0.00     0.181 C 
ATOM     34  C   UNL     1      32.368 100.632  11.108  1.00  0.00     0.181 C 
ATOM     35  O   UNL     1      31.777 101.792  10.506  1.00  0.00    -0.378 OA
ENDBRANCH  27  28
ENDBRANCH   7  22
TORSDOF 4
ENDMDL
