MODEL 1
REMARK minimizedAffinity -10.6902609
REMARK CNNscore 0.713920772
REMARK CNNaffinity 8.02305889
REMARK SMILES CC(=O)NCC(=O)N1[C@@H]2CC[C@H]1c1ccc(Nc3ncc(C(F)(F)F)c(NC4CCC4)n3)cc12
REMARK SMILES IDX 8 1 12 2 11 3 10 4 9 5 34 6 33 7 16 8 15 9 14 10 13 11 6 12
REMARK SMILES IDX 7 13 5 14 4 15 2 16 3 17 1 18 17 20 18 22 19 23 32 24 20 25
REMARK SMILES IDX 26 26 21 27 27 28 28 30 29 31 31 32 30 33 22 34 23 35 24 36
REMARK SMILES IDX 25 37
REMARK H PARENT 4 19 17 21 27 29
ROOT
ATOM      1  N   UNL     1      33.961  97.124   8.757  1.00  0.00    -0.327 N 
ATOM      2  C   UNL     1      33.014  97.539   7.726  1.00  0.00     0.116 C 
ATOM      3  C   UNL     1      31.943  96.446   7.923  1.00  0.00     0.032 C 
ATOM      4  C   UNL     1      32.005  96.178   9.468  1.00  0.00     0.032 C 
ATOM      5  C   UNL     1      33.103  97.156   9.934  1.00  0.00     0.116 C 
ATOM      6  C   UNL     1      32.531  98.552   9.774  1.00  0.00    -0.018 A 
ATOM      7  C   UNL     1      32.092  99.489  10.687  1.00  0.00     0.032 A 
ATOM      8  C   UNL     1      31.587 100.713  10.207  1.00  0.00     0.041 A 
ATOM      9  C   UNL     1      31.534 100.925   8.808  1.00  0.00     0.026 A 
ATOM     10  C   UNL     1      31.977  99.968   7.882  1.00  0.00     0.008 A 
ATOM     11  C   UNL     1      32.476  98.792   8.384  1.00  0.00    -0.020 A 
ENDROOT
BRANCH   1  12
ATOM     12  C   UNL     1      35.307  97.393   8.818  1.00  0.00     0.242 C 
ATOM     13  O   UNL     1      35.911  97.954   7.901  1.00  0.00    -0.273 OA
BRANCH  12  14
ATOM     14  C   UNL     1      36.018  96.983  10.108  1.00  0.00     0.216 C 
BRANCH  14  15
ATOM     15  N   UNL     1      36.157  95.542  10.162  1.00  0.00    -0.347 N 
ATOM     16  C   UNL     1      37.109  94.945  10.944  1.00  0.00     0.217 C 
ATOM     17  O   UNL     1      37.917  95.578  11.617  1.00  0.00    -0.275 OA
ATOM     18  C   UNL     1      37.095  93.441  10.910  1.00  0.00     0.114 C 
ATOM     19  H   UNL     1      35.469  94.996   9.652  1.00  0.00     0.164 HD
ENDBRANCH  14  15
ENDBRANCH  12  14
ENDBRANCH   1  12
BRANCH   8  20
ATOM     20  N   UNL     1      31.131 101.648  11.147  1.00  0.00    -0.324 N 
ATOM     21  H   UNL     1      31.836 102.167  11.650  1.00  0.00     0.170 HD
BRANCH  20  22
ATOM     22  C   UNL     1      29.877 102.130  11.507  1.00  0.00     0.229 A 
ATOM     23  N   UNL     1      29.814 102.691  12.721  1.00  0.00    -0.221 NA
ATOM     24  N   UNL     1      28.812 102.030  10.701  1.00  0.00    -0.195 NA
ATOM     25  C   UNL     1      28.620 103.170  13.113  1.00  0.00     0.132 A 
ATOM     26  C   UNL     1      27.621 102.499  11.120  1.00  0.00     0.144 A 
ATOM     27  C   UNL     1      27.477 103.097  12.352  1.00  0.00     0.116 A 
BRANCH  26  28
ATOM     28  N   UNL     1      26.527 102.420  10.229  1.00  0.00    -0.367 N 
ATOM     29  H   UNL     1      25.983 101.576  10.406  1.00  0.00     0.162 HD
BRANCH  28  30
ATOM     30  C   UNL     1      26.667 102.689   8.818  1.00  0.00     0.080 C 
ATOM     31  C   UNL     1      26.940 104.182   8.533  1.00  0.00     0.025 C 
ATOM     32  C   UNL     1      25.317 102.857   8.086  1.00  0.00     0.025 C 
ATOM     33  C   UNL     1      25.425 104.375   8.328  1.00  0.00     0.004 C 
ENDBRANCH  28  30
ENDBRANCH  26  28
BRANCH  27  34
ATOM     34  C   UNL     1      26.202 103.674  12.837  1.00  0.00     0.421 C 
ATOM     35  F   UNL     1      26.357 104.873  13.461  1.00  0.00    -0.166 F 
ATOM     36  F   UNL     1      25.565 102.873  13.739  1.00  0.00    -0.166 F 
ATOM     37  F   UNL     1      25.292 103.880  11.840  1.00  0.00    -0.166 F 
ENDBRANCH  27  34
ENDBRANCH  20  22
ENDBRANCH   8  20
TORSDOF 8
ENDMDL
MODEL 2
REMARK minimizedAffinity -9.70136929
REMARK CNNscore 0.699264109
REMARK CNNaffinity 8.20532036
REMARK SMILES CC(=O)NCC(=O)N1[C@@H]2CC[C@H]1c1ccc(Nc3ncc(C(F)(F)F)c(NC4CCC4)n3)cc12
REMARK SMILES IDX 8 1 12 2 11 3 10 4 9 5 34 6 33 7 16 8 15 9 14 10 13 11 6 12
REMARK SMILES IDX 7 13 5 14 4 15 2 16 3 17 1 18 17 20 18 22 19 23 32 24 20 25
REMARK SMILES IDX 26 26 21 27 27 28 28 30 29 31 31 32 30 33 22 34 23 35 24 36
REMARK SMILES IDX 25 37
REMARK H PARENT 4 19 17 21 27 29
ROOT
ATOM      1  N   UNL     1      34.090  96.763   8.900  1.00  0.00    -0.327 N 
ATOM      2  C   UNL     1      33.271  97.218   7.780  1.00  0.00     0.116 C 
ATOM      3  C   UNL     1      32.045  96.303   7.985  1.00  0.00     0.032 C 
ATOM      4  C   UNL     1      31.983  96.159   9.546  1.00  0.00     0.032 C 
ATOM      5  C   UNL     1      33.181  97.011  10.011  1.00  0.00     0.116 C 
ATOM      6  C   UNL     1      32.824  98.455   9.710  1.00  0.00    -0.018 A 
ATOM      7  C   UNL     1      32.473  99.515  10.520  1.00  0.00     0.032 A 
ATOM      8  C   UNL     1      32.176 100.753   9.918  1.00  0.00     0.041 A 
ATOM      9  C   UNL     1      32.232 100.854   8.506  1.00  0.00     0.026 A 
ATOM     10  C   UNL     1      32.585  99.772   7.685  1.00  0.00     0.008 A 
ATOM     11  C   UNL     1      32.881  98.584   8.306  1.00  0.00    -0.020 A 
ENDROOT
BRANCH   1  12
ATOM     12  C   UNL     1      35.455  96.848   9.030  1.00  0.00     0.242 C 
ATOM     13  O   UNL     1      36.147  97.550   8.289  1.00  0.00    -0.273 OA
BRANCH  12  14
ATOM     14  C   UNL     1      36.073  96.042  10.172  1.00  0.00     0.216 C 
BRANCH  14  15
ATOM     15  N   UNL     1      35.752  94.637  10.019  1.00  0.00    -0.347 N 
ATOM     16  C   UNL     1      36.515  93.662  10.603  1.00  0.00     0.217 C 
ATOM     17  O   UNL     1      37.525  93.903  11.257  1.00  0.00    -0.275 OA
ATOM     18  C   UNL     1      36.023  92.259  10.372  1.00  0.00     0.114 C 
ATOM     19  H   UNL     1      34.894  94.415   9.523  1.00  0.00     0.164 HD
ENDBRANCH  14  15
ENDBRANCH  12  14
ENDBRANCH   1  12
BRANCH   8  20
ATOM     20  N   UNL     1      31.807 101.817  10.752  1.00  0.00    -0.324 N 
ATOM     21  H   UNL     1      32.460 102.584  10.827  1.00  0.00     0.170 HD
BRANCH  20  22
ATOM     22  C   UNL     1      30.658 102.136  11.468  1.00  0.00     0.229 A 
ATOM     23  N   UNL     1      30.862 102.457  12.752  1.00  0.00    -0.221 NA
ATOM     24  N   UNL     1      29.439 102.114  10.914  1.00  0.00    -0.195 NA
ATOM     25  C   UNL     1      29.779 102.772  13.484  1.00  0.00     0.132 A 
ATOM     26  C   UNL     1      28.365 102.414  11.668  1.00  0.00     0.144 A 
ATOM     27  C   UNL     1      28.493 102.762  12.995  1.00  0.00     0.116 A 
BRANCH  26  28
ATOM     28  N   UNL     1      27.097 102.426  11.044  1.00  0.00    -0.367 N 
ATOM     29  H   UNL     1      27.023 101.660  10.374  1.00  0.00     0.162 HD
BRANCH  28  30
ATOM     30  C   UNL     1      26.502 103.641  10.545  1.00  0.00     0.080 C 
ATOM     31  C   UNL     1      26.105 103.528   9.056  1.00  0.00     0.025 C 
ATOM     32  C   UNL     1      27.537 104.709  10.126  1.00  0.00     0.025 C 
ATOM     33  C   UNL     1      27.466 104.151   8.691  1.00  0.00     0.004 C 
ENDBRANCH  28  30
ENDBRANCH  26  28
BRANCH  27  34
ATOM     34  C   UNL     1      27.350 103.150  13.854  1.00  0.00     0.421 C 
ATOM     35  F   UNL     1      27.646 103.139  15.181  1.00  0.00    -0.166 F 
ATOM     36  F   UNL     1      26.275 102.322  13.713  1.00  0.00    -0.166 F 
ATOM     37  F   UNL     1      26.874 104.400  13.581  1.00  0.00    -0.166 F 
ENDBRANCH  27  34
ENDBRANCH  20  22
ENDBRANCH   8  20
TORSDOF 8
ENDMDL
MODEL 3
REMARK minimizedAffinity -10.3283148
REMARK CNNscore 0.623302877
REMARK CNNaffinity 8.07666111
REMARK SMILES CC(=O)NCC(=O)N1[C@@H]2CC[C@H]1c1ccc(Nc3ncc(C(F)(F)F)c(NC4CCC4)n3)cc12
REMARK SMILES IDX 8 1 12 2 11 3 10 4 9 5 34 6 33 7 16 8 15 9 14 10 13 11 6 12
REMARK SMILES IDX 7 13 5 14 4 15 2 16 3 17 1 18 17 20 18 22 19 23 32 24 20 25
REMARK SMILES IDX 26 26 21 27 27 28 28 30 29 31 31 32 30 33 22 34 23 35 24 36
REMARK SMILES IDX 25 37
REMARK H PARENT 4 19 17 21 27 29
ROOT
ATOM      1  N   UNL     1      34.234  96.920   8.823  1.00  0.00    -0.327 N 
ATOM      2  C   UNL     1      34.912  98.187   9.086  1.00  0.00     0.116 C 
ATOM      3  C   UNL     1      35.445  98.478   7.667  1.00  0.00     0.032 C 
ATOM      4  C   UNL     1      34.323  97.877   6.749  1.00  0.00     0.032 C 
ATOM      5  C   UNL     1      33.310  97.327   7.774  1.00  0.00     0.116 C 
ATOM      6  C   UNL     1      32.690  98.533   8.455  1.00  0.00    -0.018 A 
ATOM      7  C   UNL     1      31.441  99.112   8.368  1.00  0.00     0.032 A 
ATOM      8  C   UNL     1      31.177 100.264   9.135  1.00  0.00     0.041 A 
ATOM      9  C   UNL     1      32.210 100.790   9.948  1.00  0.00     0.026 A 
ATOM     10  C   UNL     1      33.481 100.202  10.030  1.00  0.00     0.008 A 
ATOM     11  C   UNL     1      33.700  99.073   9.280  1.00  0.00    -0.020 A 
ENDROOT
BRANCH   1  12
ATOM     12  C   UNL     1      33.938  95.925   9.722  1.00  0.00     0.242 C 
ATOM     13  O   UNL     1      32.952  95.975  10.462  1.00  0.00    -0.273 OA
BRANCH  12  14
ATOM     14  C   UNL     1      34.886  94.726   9.736  1.00  0.00     0.216 C 
BRANCH  14  15
ATOM     15  N   UNL     1      36.197  95.135  10.198  1.00  0.00    -0.347 N 
ATOM     16  C   UNL     1      37.051  94.250  10.799  1.00  0.00     0.217 C 
ATOM     17  O   UNL     1      36.758  93.078  11.015  1.00  0.00    -0.275 OA
ATOM     18  C   UNL     1      38.383  94.830  11.187  1.00  0.00     0.114 C 
ATOM     19  H   UNL     1      36.480  96.088   9.987  1.00  0.00     0.164 HD
ENDBRANCH  14  15
ENDBRANCH  12  14
ENDBRANCH   1  12
BRANCH   8  20
ATOM     20  N   UNL     1      29.908 100.849   9.025  1.00  0.00    -0.324 N 
ATOM     21  H   UNL     1      29.358 100.591   8.219  1.00  0.00     0.170 HD
BRANCH  20  22
ATOM     22  C   UNL     1      29.143 101.669   9.848  1.00  0.00     0.229 A 
ATOM     23  N   UNL     1      29.291 101.449  11.160  1.00  0.00    -0.221 NA
ATOM     24  N   UNL     1      28.314 102.601   9.360  1.00  0.00    -0.195 NA
ATOM     25  C   UNL     1      28.570 102.218  11.995  1.00  0.00     0.132 A 
ATOM     26  C   UNL     1      27.587 103.348  10.212  1.00  0.00     0.144 A 
ATOM     27  C   UNL     1      27.689 103.187  11.577  1.00  0.00     0.116 A 
BRANCH  26  28
ATOM     28  N   UNL     1      26.755 104.353   9.669  1.00  0.00    -0.367 N 
ATOM     29  H   UNL     1      26.601 105.095  10.352  1.00  0.00     0.162 HD
BRANCH  28  30
ATOM     30  C   UNL     1      25.557 104.039   8.930  1.00  0.00     0.080 C 
ATOM     31  C   UNL     1      24.276 104.366   9.730  1.00  0.00     0.025 C 
ATOM     32  C   UNL     1      25.155 102.549   9.011  1.00  0.00     0.025 C 
ATOM     33  C   UNL     1      24.255 102.902  10.211  1.00  0.00     0.004 C 
ENDBRANCH  28  30
ENDBRANCH  26  28
BRANCH  27  34
ATOM     34  C   UNL     1      26.949 104.017  12.556  1.00  0.00     0.421 C 
ATOM     35  F   UNL     1      26.530 105.206  12.045  1.00  0.00    -0.166 F 
ATOM     36  F   UNL     1      27.693 104.334  13.654  1.00  0.00    -0.166 F 
ATOM     37  F   UNL     1      25.834 103.401  13.047  1.00  0.00    -0.166 F 
ENDBRANCH  27  34
ENDBRANCH  20  22
ENDBRANCH   8  20
TORSDOF 8
ENDMDL
MODEL 4
REMARK minimizedAffinity -9.45966434
REMARK CNNscore 0.590960979
REMARK CNNaffinity 8.15133381
REMARK SMILES CC(=O)NCC(=O)N1[C@@H]2CC[C@H]1c1ccc(Nc3ncc(C(F)(F)F)c(NC4CCC4)n3)cc12
REMARK SMILES IDX 8 1 12 2 11 3 10 4 9 5 34 6 33 7 16 8 15 9 14 10 13 11 6 12
REMARK SMILES IDX 7 13 5 14 4 15 2 16 3 17 1 18 17 20 18 22 19 23 32 24 20 25
REMARK SMILES IDX 26 26 21 27 27 28 28 30 29 31 31 32 30 33 22 34 23 35 24 36
REMARK SMILES IDX 25 37
REMARK H PARENT 4 19 17 21 27 29
ROOT
ATOM      1  N   UNL     1      32.658  98.691   8.631  1.00  0.00    -0.327 N 
ATOM      2  C   UNL     1      33.427  99.932   8.591  1.00  0.00     0.116 C 
ATOM      3  C   UNL     1      32.852 100.534   7.291  1.00  0.00     0.032 C 
ATOM      4  C   UNL     1      31.364 100.036   7.311  1.00  0.00     0.032 C 
ATOM      5  C   UNL     1      31.301  99.221   8.619  1.00  0.00     0.116 C 
ATOM      6  C   UNL     1      31.423 100.220   9.754  1.00  0.00    -0.018 A 
ATOM      7  C   UNL     1      30.512 100.705  10.670  1.00  0.00     0.032 A 
ATOM      8  C   UNL     1      30.944 101.662  11.608  1.00  0.00     0.041 A 
ATOM      9  C   UNL     1      32.290 102.100  11.562  1.00  0.00     0.026 A 
ATOM     10  C   UNL     1      33.213 101.608  10.627  1.00  0.00     0.008 A 
ATOM     11  C   UNL     1      32.762 100.666   9.735  1.00  0.00    -0.020 A 
ENDROOT
BRANCH   1  12
ATOM     12  C   UNL     1      32.986  97.520   9.270  1.00  0.00     0.242 C 
ATOM     13  O   UNL     1      32.134  96.747   9.712  1.00  0.00    -0.273 OA
BRANCH  12  14
ATOM     14  C   UNL     1      34.479  97.209   9.378  1.00  0.00     0.216 C 
BRANCH  14  15
ATOM     15  N   UNL     1      34.683  95.777   9.454  1.00  0.00    -0.347 N 
ATOM     16  C   UNL     1      35.755  95.242  10.117  1.00  0.00     0.217 C 
ATOM     17  O   UNL     1      36.620  95.926  10.655  1.00  0.00    -0.275 OA
ATOM     18  C   UNL     1      35.798  93.738  10.127  1.00  0.00     0.114 C 
ATOM     19  H   UNL     1      33.955  95.189   9.058  1.00  0.00     0.164 HD
ENDBRANCH  14  15
ENDBRANCH  12  14
ENDBRANCH   1  12
BRANCH   8  20
ATOM     20  N   UNL     1      30.003 102.157  12.522  1.00  0.00    -0.324 N 
ATOM     21  H   UNL     1      30.297 102.221  13.486  1.00  0.00     0.170 HD
BRANCH  20  22
ATOM     22  C   UNL     1      28.728 102.698  12.405  1.00  0.00     0.229 A 
ATOM     23  N   UNL     1      28.447 103.677  13.274  1.00  0.00    -0.221 NA
ATOM     24  N   UNL     1      27.846 102.264  11.495  1.00  0.00    -0.195 NA
ATOM     25  C   UNL     1      27.224 104.230  13.198  1.00  0.00     0.132 A 
ATOM     26  C   UNL     1      26.620 102.818  11.448  1.00  0.00     0.144 A 
ATOM     27  C   UNL     1      26.257 103.836  12.303  1.00  0.00     0.116 A 
BRANCH  26  28
ATOM     28  N   UNL     1      25.727 102.371  10.448  1.00  0.00    -0.367 N 
ATOM     29  H   UNL     1      25.289 101.493  10.728  1.00  0.00     0.162 HD
BRANCH  28  30
ATOM     30  C   UNL     1      26.079 102.378   9.049  1.00  0.00     0.080 C 
ATOM     31  C   UNL     1      27.501 102.932   8.809  1.00  0.00     0.025 C 
ATOM     32  C   UNL     1      25.536 103.605   8.283  1.00  0.00     0.025 C 
ATOM     33  C   UNL     1      26.873 104.318   8.566  1.00  0.00     0.004 C 
ENDBRANCH  28  30
ENDBRANCH  26  28
BRANCH  27  34
ATOM     34  C   UNL     1      24.940 104.513  12.258  1.00  0.00     0.421 C 
ATOM     35  F   UNL     1      25.010 105.845  12.522  1.00  0.00    -0.166 F 
ATOM     36  F   UNL     1      24.051 104.007  13.161  1.00  0.00    -0.166 F 
ATOM     37  F   UNL     1      24.319 104.399  11.047  1.00  0.00    -0.166 F 
ENDBRANCH  27  34
ENDBRANCH  20  22
ENDBRANCH   8  20
TORSDOF 8
ENDMDL
MODEL 5
REMARK minimizedAffinity -8.17064857
REMARK CNNscore 0.398738414
REMARK CNNaffinity 7.85450363
REMARK SMILES CC(=O)NCC(=O)N1[C@@H]2CC[C@H]1c1ccc(Nc3ncc(C(F)(F)F)c(NC4CCC4)n3)cc12
REMARK SMILES IDX 8 1 12 2 11 3 10 4 9 5 34 6 33 7 16 8 15 9 14 10 13 11 6 12
REMARK SMILES IDX 7 13 5 14 4 15 2 16 3 17 1 18 17 20 18 22 19 23 32 24 20 25
REMARK SMILES IDX 26 26 21 27 27 28 28 30 29 31 31 32 30 33 22 34 23 35 24 36
REMARK SMILES IDX 25 37
REMARK H PARENT 4 19 17 21 27 29
ROOT
ATOM      1  N   UNL     1      34.960  97.311   8.181  1.00  0.00    -0.327 N 
ATOM      2  C   UNL     1      33.680  96.636   8.377  1.00  0.00     0.116 C 
ATOM      3  C   UNL     1      34.075  95.691   9.531  1.00  0.00     0.032 C 
ATOM      4  C   UNL     1      35.125  96.543  10.328  1.00  0.00     0.032 C 
ATOM      5  C   UNL     1      35.180  97.853   9.515  1.00  0.00     0.116 C 
ATOM      6  C   UNL     1      33.844  98.541   9.718  1.00  0.00    -0.018 A 
ATOM      7  C   UNL     1      33.472  99.658  10.436  1.00  0.00     0.032 A 
ATOM      8  C   UNL     1      32.115 100.037  10.438  1.00  0.00     0.041 A 
ATOM      9  C   UNL     1      31.187  99.246   9.718  1.00  0.00     0.026 A 
ATOM     10  C   UNL     1      31.569  98.108   8.992  1.00  0.00     0.008 A 
ATOM     11  C   UNL     1      32.901  97.774   9.001  1.00  0.00    -0.020 A 
ENDROOT
BRANCH   1  12
ATOM     12  C   UNL     1      35.414  97.938   7.046  1.00  0.00     0.242 C 
ATOM     13  O   UNL     1      35.940  97.322   6.117  1.00  0.00    -0.273 OA
BRANCH  12  14
ATOM     14  C   UNL     1      35.202  99.450   6.982  1.00  0.00     0.216 C 
BRANCH  14  15
ATOM     15  N   UNL     1      33.914  99.747   6.389  1.00  0.00    -0.347 N 
ATOM     16  C   UNL     1      33.125 100.760   6.862  1.00  0.00     0.217 C 
ATOM     17  O   UNL     1      33.433 101.454   7.826  1.00  0.00    -0.275 OA
ATOM     18  C   UNL     1      31.836 100.954   6.111  1.00  0.00     0.114 C 
ATOM     19  H   UNL     1      33.659  99.217   5.560  1.00  0.00     0.164 HD
ENDBRANCH  14  15
ENDBRANCH  12  14
ENDBRANCH   1  12
BRANCH   8  20
ATOM     20  N   UNL     1      31.750 101.166  11.184  1.00  0.00    -0.324 N 
ATOM     21  H   UNL     1      32.500 101.759  11.508  1.00  0.00     0.170 HD
BRANCH  20  22
ATOM     22  C   UNL     1      30.536 101.753  11.526  1.00  0.00     0.229 A 
ATOM     23  N   UNL     1      30.527 102.387  12.706  1.00  0.00    -0.221 NA
ATOM     24  N   UNL     1      29.456 101.678  10.738  1.00  0.00    -0.195 NA
ATOM     25  C   UNL     1      29.374 102.969  13.079  1.00  0.00     0.132 A 
ATOM     26  C   UNL     1      28.306 102.252  11.138  1.00  0.00     0.144 A 
ATOM     27  C   UNL     1      28.218 102.930  12.334  1.00  0.00     0.116 A 
BRANCH  26  28
ATOM     28  N   UNL     1      27.197 102.195  10.264  1.00  0.00    -0.367 N 
ATOM     29  H   UNL     1      26.712 101.303  10.359  1.00  0.00     0.162 HD
BRANCH  28  30
ATOM     30  C   UNL     1      27.285 102.619   8.888  1.00  0.00     0.080 C 
ATOM     31  C   UNL     1      27.350 104.157   8.754  1.00  0.00     0.025 C 
ATOM     32  C   UNL     1      25.917 102.675   8.170  1.00  0.00     0.025 C 
ATOM     33  C   UNL     1      25.821 104.162   8.564  1.00  0.00     0.004 C 
ENDBRANCH  28  30
ENDBRANCH  26  28
BRANCH  27  34
ATOM     34  C   UNL     1      26.991 103.620  12.796  1.00  0.00     0.421 C 
ATOM     35  F   UNL     1      26.488 104.491  11.881  1.00  0.00    -0.166 F 
ATOM     36  F   UNL     1      27.187 104.353  13.929  1.00  0.00    -0.166 F 
ATOM     37  F   UNL     1      25.974 102.761  13.100  1.00  0.00    -0.166 F 
ENDBRANCH  27  34
ENDBRANCH  20  22
ENDBRANCH   8  20
TORSDOF 8
ENDMDL
MODEL 6
REMARK minimizedAffinity -6.90179777
REMARK CNNscore 0.264131486
REMARK CNNaffinity 7.39541101
REMARK SMILES CC(=O)NCC(=O)N1[C@@H]2CC[C@H]1c1ccc(Nc3ncc(C(F)(F)F)c(NC4CCC4)n3)cc12
REMARK SMILES IDX 8 1 12 2 11 3 10 4 9 5 34 6 33 7 16 8 15 9 14 10 13 11 6 12
REMARK SMILES IDX 7 13 5 14 4 15 2 16 3 17 1 18 17 20 18 22 19 23 32 24 20 25
REMARK SMILES IDX 26 26 21 27 27 28 28 30 29 31 31 32 30 33 22 34 23 35 24 36
REMARK SMILES IDX 25 37
REMARK H PARENT 4 19 17 21 27 29
ROOT
ATOM      1  N   UNL     1      33.554  96.712   8.862  1.00  0.00    -0.327 N 
ATOM      2  C   UNL     1      32.704  97.226   7.792  1.00  0.00     0.116 C 
ATOM      3  C   UNL     1      31.508  96.262   7.945  1.00  0.00     0.032 C 
ATOM      4  C   UNL     1      31.476  96.000   9.492  1.00  0.00     0.032 C 
ATOM      5  C   UNL     1      32.657  96.850  10.002  1.00  0.00     0.116 C 
ATOM      6  C   UNL     1      32.255  98.301   9.816  1.00  0.00    -0.018 A 
ATOM      7  C   UNL     1      31.887  99.287  10.708  1.00  0.00     0.032 A 
ATOM      8  C   UNL     1      31.546 100.557  10.204  1.00  0.00     0.041 A 
ATOM      9  C   UNL     1      31.575 100.765   8.804  1.00  0.00     0.026 A 
ATOM     10  C   UNL     1      31.945  99.758   7.899  1.00  0.00     0.008 A 
ATOM     11  C   UNL     1      32.285  98.536   8.424  1.00  0.00    -0.020 A 
ENDROOT
BRANCH   1  12
ATOM     12  C   UNL     1      34.918  96.827   8.979  1.00  0.00     0.242 C 
ATOM     13  O   UNL     1      35.677  95.865   8.838  1.00  0.00    -0.273 OA
BRANCH  12  14
ATOM     14  C   UNL     1      35.454  98.230   9.266  1.00  0.00     0.216 C 
BRANCH  14  15
ATOM     15  N   UNL     1      34.990  99.155   8.252  1.00  0.00    -0.347 N 
ATOM     16  C   UNL     1      35.358  99.021   6.940  1.00  0.00     0.217 C 
ATOM     17  O   UNL     1      36.118  98.143   6.544  1.00  0.00    -0.275 OA
ATOM     18  C   UNL     1      34.762 100.046   6.015  1.00  0.00     0.114 C 
ATOM     19  H   UNL     1      34.322  99.861   8.547  1.00  0.00     0.164 HD
ENDBRANCH  14  15
ENDBRANCH  12  14
ENDBRANCH   1  12
BRANCH   8  20
ATOM     20  N   UNL     1      31.160 101.545  11.122  1.00  0.00    -0.324 N 
ATOM     21  H   UNL     1      31.902 102.024  11.612  1.00  0.00     0.170 HD
BRANCH  20  22
ATOM     22  C   UNL     1      29.945 102.123  11.472  1.00  0.00     0.229 A 
ATOM     23  N   UNL     1      29.966 102.842  12.602  1.00  0.00    -0.221 NA
ATOM     24  N   UNL     1      28.837 101.963  10.738  1.00  0.00    -0.195 NA
ATOM     25  C   UNL     1      28.812 103.420  12.981  1.00  0.00     0.132 A 
ATOM     26  C   UNL     1      27.687 102.534  11.145  1.00  0.00     0.144 A 
ATOM     27  C   UNL     1      27.629 103.296  12.291  1.00  0.00     0.116 A 
BRANCH  26  28
ATOM     28  N   UNL     1      26.546 102.385  10.325  1.00  0.00    -0.367 N 
ATOM     29  H   UNL     1      26.054 101.521  10.552  1.00  0.00     0.162 HD
BRANCH  28  30
ATOM     30  C   UNL     1      26.588 102.627   8.903  1.00  0.00     0.080 C 
ATOM     31  C   UNL     1      26.926 104.097   8.572  1.00  0.00     0.025 C 
ATOM     32  C   UNL     1      25.195 102.870   8.278  1.00  0.00     0.025 C 
ATOM     33  C   UNL     1      25.414 104.381   8.485  1.00  0.00     0.004 C 
ENDBRANCH  28  30
ENDBRANCH  26  28
BRANCH  27  34
ATOM     34  C   UNL     1      26.403 103.986  12.753  1.00  0.00     0.421 C 
ATOM     35  F   UNL     1      25.763 104.666  11.764  1.00  0.00    -0.166 F 
ATOM     36  F   UNL     1      26.646 104.907  13.730  1.00  0.00    -0.166 F 
ATOM     37  F   UNL     1      25.478 103.136  13.289  1.00  0.00    -0.166 F 
ENDBRANCH  27  34
ENDBRANCH  20  22
ENDBRANCH   8  20
TORSDOF 8
ENDMDL
MODEL 7
REMARK minimizedAffinity -8.94056511
REMARK CNNscore 0.254421979
REMARK CNNaffinity 6.94306231
REMARK SMILES CC(=O)NCC(=O)N1[C@@H]2CC[C@H]1c1ccc(Nc3ncc(C(F)(F)F)c(NC4CCC4)n3)cc12
REMARK SMILES IDX 8 1 12 2 11 3 10 4 9 5 34 6 33 7 16 8 15 9 14 10 13 11 6 12
REMARK SMILES IDX 7 13 5 14 4 15 2 16 3 17 1 18 17 20 18 22 19 23 32 24 20 25
REMARK SMILES IDX 26 26 21 27 27 28 28 30 29 31 31 32 30 33 22 34 23 35 24 36
REMARK SMILES IDX 25 37
REMARK H PARENT 4 19 17 21 27 29
ROOT
ATOM      1  N   UNL     1      34.390  97.504   8.737  1.00  0.00    -0.327 N 
ATOM      2  C   UNL     1      34.653  97.980  10.092  1.00  0.00     0.116 C 
ATOM      3  C   UNL     1      33.369  97.474  10.783  1.00  0.00     0.032 C 
ATOM      4  C   UNL     1      33.064  96.144  10.009  1.00  0.00     0.032 C 
ATOM      5  C   UNL     1      34.217  96.079   8.986  1.00  0.00     0.116 C 
ATOM      6  C   UNL     1      35.483  95.819   9.780  1.00  0.00    -0.018 A 
ATOM      7  C   UNL     1      36.285  94.705   9.915  1.00  0.00     0.032 A 
ATOM      8  C   UNL     1      37.407  94.782  10.764  1.00  0.00     0.041 A 
ATOM      9  C   UNL     1      37.654  95.991  11.457  1.00  0.00     0.026 A 
ATOM     10  C   UNL     1      36.833  97.121  11.321  1.00  0.00     0.008 A 
ATOM     11  C   UNL     1      35.756  97.017  10.476  1.00  0.00    -0.020 A 
ENDROOT
BRANCH   1  12
ATOM     12  C   UNL     1      34.908  97.990   7.561  1.00  0.00     0.242 C 
ATOM     13  O   UNL     1      35.812  97.415   6.950  1.00  0.00    -0.273 OA
BRANCH  12  14
ATOM     14  C   UNL     1      34.279  99.277   7.030  1.00  0.00     0.216 C 
BRANCH  14  15
ATOM     15  N   UNL     1      33.311  99.786   7.980  1.00  0.00    -0.347 N 
ATOM     16  C   UNL     1      32.244 100.544   7.576  1.00  0.00     0.217 C 
ATOM     17  O   UNL     1      32.055 100.867   6.407  1.00  0.00    -0.275 OA
ATOM     18  C   UNL     1      31.318 100.962   8.685  1.00  0.00     0.114 C 
ATOM     19  H   UNL     1      33.419  99.492   8.946  1.00  0.00     0.164 HD
ENDBRANCH  14  15
ENDBRANCH  12  14
ENDBRANCH   1  12
BRANCH   8  20
ATOM     20  N   UNL     1      38.204  93.637  10.901  1.00  0.00    -0.324 N 
ATOM     21  H   UNL     1      39.203  93.781  10.939  1.00  0.00     0.170 HD
BRANCH  20  22
ATOM     22  C   UNL     1      37.938  92.287  11.106  1.00  0.00     0.229 A 
ATOM     23  N   UNL     1      36.650  91.940  10.980  1.00  0.00    -0.221 NA
ATOM     24  N   UNL     1      38.897  91.405  11.413  1.00  0.00    -0.195 NA
ATOM     25  C   UNL     1      36.345  90.645  11.170  1.00  0.00     0.132 A 
ATOM     26  C   UNL     1      38.568  90.116  11.617  1.00  0.00     0.144 A 
ATOM     27  C   UNL     1      37.267  89.679  11.499  1.00  0.00     0.116 A 
BRANCH  26  28
ATOM     28  N   UNL     1      39.608  89.201  11.896  1.00  0.00    -0.367 N 
ATOM     29  H   UNL     1      39.335  88.257  11.624  1.00  0.00     0.162 HD
BRANCH  28  30
ATOM     30  C   UNL     1      40.329  89.218  13.145  1.00  0.00     0.080 C 
ATOM     31  C   UNL     1      41.718  88.554  13.027  1.00  0.00     0.025 C 
ATOM     32  C   UNL     1      39.929  88.073  14.103  1.00  0.00     0.025 C 
ATOM     33  C   UNL     1      41.082  87.237  13.515  1.00  0.00     0.004 C 
ENDBRANCH  28  30
ENDBRANCH  26  28
BRANCH  27  34
ATOM     34  C   UNL     1      36.861  88.263  11.663  1.00  0.00     0.421 C 
ATOM     35  F   UNL     1      35.954  87.853  10.736  1.00  0.00    -0.166 F 
ATOM     36  F   UNL     1      36.284  88.013  12.874  1.00  0.00    -0.166 F 
ATOM     37  F   UNL     1      37.908  87.392  11.581  1.00  0.00    -0.166 F 
ENDBRANCH  27  34
ENDBRANCH  20  22
ENDBRANCH   8  20
TORSDOF 8
ENDMDL
MODEL 8
REMARK minimizedAffinity -9.76331615
REMARK CNNscore 0.241633549
REMARK CNNaffinity 7.53957748
REMARK SMILES CC(=O)NCC(=O)N1[C@@H]2CC[C@H]1c1ccc(Nc3ncc(C(F)(F)F)c(NC4CCC4)n3)cc12
REMARK SMILES IDX 8 1 12 2 11 3 10 4 9 5 34 6 33 7 16 8 15 9 14 10 13 11 6 12
REMARK SMILES IDX 7 13 5 14 4 15 2 16 3 17 1 18 17 20 18 22 19 23 32 24 20 25
REMARK SMILES IDX 26 26 21 27 27 28 28 30 29 31 31 32 30 33 22 34 23 35 24 36
REMARK SMILES IDX 25 37
REMARK H PARENT 4 19 17 21 27 29
ROOT
ATOM      1  N   UNL     1      33.720  97.208   8.673  1.00  0.00    -0.327 N 
ATOM      2  C   UNL     1      34.474  98.353   9.176  1.00  0.00     0.116 C 
ATOM      3  C   UNL     1      35.208  98.752   7.879  1.00  0.00     0.032 C 
ATOM      4  C   UNL     1      34.161  98.390   6.767  1.00  0.00     0.032 C 
ATOM      5  C   UNL     1      32.978  97.836   7.588  1.00  0.00     0.116 C 
ATOM      6  C   UNL     1      32.392  99.012   8.346  1.00  0.00    -0.018 A 
ATOM      7  C   UNL     1      31.224  99.729   8.194  1.00  0.00     0.032 A 
ATOM      8  C   UNL     1      30.974 100.803   9.071  1.00  0.00     0.041 A 
ATOM      9  C   UNL     1      31.939 101.113  10.059  1.00  0.00     0.026 A 
ATOM     10  C   UNL     1      33.129 100.384  10.208  1.00  0.00     0.008 A 
ATOM     11  C   UNL     1      33.335  99.336   9.346  1.00  0.00    -0.020 A 
ENDROOT
BRANCH   1  12
ATOM     12  C   UNL     1      33.220  96.150   9.393  1.00  0.00     0.242 C 
ATOM     13  O   UNL     1      32.067  96.135   9.831  1.00  0.00    -0.273 OA
BRANCH  12  14
ATOM     14  C   UNL     1      34.167  94.969   9.600  1.00  0.00     0.216 C 
BRANCH  14  15
ATOM     15  N   UNL     1      35.399  95.421  10.212  1.00  0.00    -0.347 N 
ATOM     16  C   UNL     1      36.377  94.539  10.588  1.00  0.00     0.217 C 
ATOM     17  O   UNL     1      36.265  93.323  10.465  1.00  0.00    -0.275 OA
ATOM     18  C   UNL     1      37.605  95.178  11.176  1.00  0.00     0.114 C 
ATOM     19  H   UNL     1      35.535  96.426  10.280  1.00  0.00     0.164 HD
ENDBRANCH  14  15
ENDBRANCH  12  14
ENDBRANCH   1  12
BRANCH   8  20
ATOM     20  N   UNL     1      29.789 101.531   8.894  1.00  0.00    -0.324 N 
ATOM     21  H   UNL     1      29.627 101.919   7.976  1.00  0.00     0.170 HD
BRANCH  20  22
ATOM     22  C   UNL     1      28.677 101.784   9.691  1.00  0.00     0.229 A 
ATOM     23  N   UNL     1      27.605 102.246   9.035  1.00  0.00    -0.221 NA
ATOM     24  N   UNL     1      28.685 101.588  11.015  1.00  0.00    -0.195 NA
ATOM     25  C   UNL     1      26.506 102.506   9.764  1.00  0.00     0.132 A 
ATOM     26  C   UNL     1      27.580 101.872  11.731  1.00  0.00     0.144 A 
ATOM     27  C   UNL     1      26.434 102.343  11.128  1.00  0.00     0.116 A 
BRANCH  26  28
ATOM     28  N   UNL     1      27.604 101.612  13.120  1.00  0.00    -0.367 N 
ATOM     29  H   UNL     1      26.655 101.560  13.489  1.00  0.00     0.162 HD
BRANCH  28  30
ATOM     30  C   UNL     1      28.495 102.310  14.014  1.00  0.00     0.080 C 
ATOM     31  C   UNL     1      28.063 103.776  14.240  1.00  0.00     0.025 C 
ATOM     32  C   UNL     1      29.764 102.854  13.319  1.00  0.00     0.025 C 
ATOM     33  C   UNL     1      29.022 104.188  13.107  1.00  0.00     0.004 C 
ENDBRANCH  28  30
ENDBRANCH  26  28
BRANCH  27  34
ATOM     34  C   UNL     1      25.178 102.622  11.863  1.00  0.00     0.421 C 
ATOM     35  F   UNL     1      24.434 101.508  12.097  1.00  0.00    -0.166 F 
ATOM     36  F   UNL     1      24.353 103.481  11.198  1.00  0.00    -0.166 F 
ATOM     37  F   UNL     1      25.387 103.202  13.081  1.00  0.00    -0.166 F 
ENDBRANCH  27  34
ENDBRANCH  20  22
ENDBRANCH   8  20
TORSDOF 8
ENDMDL
MODEL 9
REMARK minimizedAffinity -8.74370766
REMARK CNNscore 0.231733412
REMARK CNNaffinity 7.26582956
REMARK SMILES CC(=O)NCC(=O)N1[C@@H]2CC[C@H]1c1ccc(Nc3ncc(C(F)(F)F)c(NC4CCC4)n3)cc12
REMARK SMILES IDX 8 1 12 2 11 3 10 4 9 5 34 6 33 7 16 8 15 9 14 10 13 11 6 12
REMARK SMILES IDX 7 13 5 14 4 15 2 16 3 17 1 18 17 20 18 22 19 23 32 24 20 25
REMARK SMILES IDX 26 26 21 27 27 28 28 30 29 31 31 32 30 33 22 34 23 35 24 36
REMARK SMILES IDX 25 37
REMARK H PARENT 4 19 17 21 27 29
ROOT
ATOM      1  N   UNL     1      34.410  97.422   8.735  1.00  0.00    -0.327 N 
ATOM      2  C   UNL     1      34.615  97.883  10.105  1.00  0.00     0.116 C 
ATOM      3  C   UNL     1      33.345  97.293  10.754  1.00  0.00     0.032 C 
ATOM      4  C   UNL     1      33.132  95.965   9.947  1.00  0.00     0.032 C 
ATOM      5  C   UNL     1      34.310  95.985   8.951  1.00  0.00     0.116 C 
ATOM      6  C   UNL     1      35.570  95.778   9.771  1.00  0.00    -0.018 A 
ATOM      7  C   UNL     1      36.429  94.707   9.904  1.00  0.00     0.032 A 
ATOM      8  C   UNL     1      37.525  94.827  10.781  1.00  0.00     0.041 A 
ATOM      9  C   UNL     1      37.688  96.034  11.504  1.00  0.00     0.026 A 
ATOM     10  C   UNL     1      36.809  97.119  11.370  1.00  0.00     0.008 A 
ATOM     11  C   UNL     1      35.760  96.974  10.497  1.00  0.00    -0.020 A 
ENDROOT
BRANCH   1  12
ATOM     12  C   UNL     1      34.928  97.960   7.582  1.00  0.00     0.242 C 
ATOM     13  O   UNL     1      35.831  97.412   6.945  1.00  0.00    -0.273 OA
BRANCH  12  14
ATOM     14  C   UNL     1      34.300  99.270   7.109  1.00  0.00     0.216 C 
BRANCH  14  15
ATOM     15  N   UNL     1      33.309  99.720   8.066  1.00  0.00    -0.347 N 
ATOM     16  C   UNL     1      32.246 100.493   7.684  1.00  0.00     0.217 C 
ATOM     17  O   UNL     1      32.078 100.880   6.532  1.00  0.00    -0.275 OA
ATOM     18  C   UNL     1      31.296 100.844   8.796  1.00  0.00     0.114 C 
ATOM     19  H   UNL     1      33.400  99.373   9.017  1.00  0.00     0.164 HD
ENDBRANCH  14  15
ENDBRANCH  12  14
ENDBRANCH   1  12
BRANCH   8  20
ATOM     20  N   UNL     1      38.381  93.725  10.916  1.00  0.00    -0.324 N 
ATOM     21  H   UNL     1      39.372  93.911  10.864  1.00  0.00     0.170 HD
BRANCH  20  22
ATOM     22  C   UNL     1      38.192  92.380  11.215  1.00  0.00     0.229 A 
ATOM     23  N   UNL     1      39.306  91.712  11.542  1.00  0.00    -0.221 NA
ATOM     24  N   UNL     1      36.987  91.798  11.170  1.00  0.00    -0.195 NA
ATOM     25  C   UNL     1      39.172  90.407  11.839  1.00  0.00     0.132 A 
ATOM     26  C   UNL     1      36.877  90.486  11.453  1.00  0.00     0.144 A 
ATOM     27  C   UNL     1      37.974  89.732  11.805  1.00  0.00     0.116 A 
BRANCH  26  28
ATOM     28  N   UNL     1      35.586  89.911  11.441  1.00  0.00    -0.367 N 
ATOM     29  H   UNL     1      35.368  89.505  12.350  1.00  0.00     0.162 HD
BRANCH  28  30
ATOM     30  C   UNL     1      35.128  89.081  10.353  1.00  0.00     0.080 C 
ATOM     31  C   UNL     1      33.812  89.604   9.736  1.00  0.00     0.025 C 
ATOM     32  C   UNL     1      34.344  87.833  10.818  1.00  0.00     0.025 C 
ATOM     33  C   UNL     1      33.044  88.648  10.669  1.00  0.00     0.004 C 
ENDBRANCH  28  30
ENDBRANCH  26  28
BRANCH  27  34
ATOM     34  C   UNL     1      37.898  88.299  12.174  1.00  0.00     0.421 C 
ATOM     35  F   UNL     1      37.665  87.482  11.111  1.00  0.00    -0.166 F 
ATOM     36  F   UNL     1      36.902  88.031  13.066  1.00  0.00    -0.166 F 
ATOM     37  F   UNL     1      39.038  87.835  12.765  1.00  0.00    -0.166 F 
ENDBRANCH  27  34
ENDBRANCH  20  22
ENDBRANCH   8  20
TORSDOF 8
ENDMDL
