MODEL 1
REMARK minimizedAffinity -8.87629795
REMARK CNNscore 0.864377975
REMARK CNNaffinity 8.06594372
REMARK SMILES C#CCOc1ccc(Nc2ccc3ncc(N4CCOCC4)nc3c2C#N)cc1OC
REMARK SMILES IDX 5 1 6 2 7 3 8 4 28 5 29 6 4 7 3 8 2 9 1 10 30 11 31 12 9 13
REMARK SMILES IDX 10 15 11 16 25 17 12 18 24 19 26 20 13 21 23 22 27 23 14 24
REMARK SMILES IDX 16 25 15 26 17 27 18 28 22 29 19 30 21 31 20 32
REMARK H PARENT 9 14
ROOT
ATOM      1  C   UNL     1      33.045  97.404   9.028  1.00  0.00     0.162 A 
ATOM      2  C   UNL     1      32.822  96.317   9.870  1.00  0.00     0.052 A 
ATOM      3  C   UNL     1      33.872  95.453  10.179  1.00  0.00     0.030 A 
ATOM      4  C   UNL     1      35.152  95.661   9.650  1.00  0.00     0.042 A 
ATOM      5  C   UNL     1      35.366  96.789   8.835  1.00  0.00     0.076 A 
ATOM      6  C   UNL     1      34.325  97.674   8.532  1.00  0.00     0.162 A 
ENDROOT
BRANCH   1   7
ATOM      7  O   UNL     1      31.985  98.236   8.771  1.00  0.00    -0.477 OA
BRANCH   7   8
ATOM      8  C   UNL     1      32.432  99.594   8.674  1.00  0.00     0.318 C 
ATOM      9  C   UNL     1      32.018 100.323   9.883  1.00  0.00    -0.065 C 
ATOM     10  C   UNL     1      31.717 100.916  10.885  1.00  0.00     0.007 C 
ENDBRANCH   7   8
ENDBRANCH   1   7
BRANCH   6  11
ATOM     11  O   UNL     1      34.457  98.790   7.749  1.00  0.00    -0.493 OA
ATOM     12  C   UNL     1      35.519  98.783   6.802  1.00  0.00     0.278 C 
ENDBRANCH   6  11
BRANCH   4  13
ATOM     13  N   UNL     1      36.250  94.824   9.939  1.00  0.00    -0.354 N 
ATOM     14  H   UNL     1      37.143  95.294   9.802  1.00  0.00     0.167 HD
BRANCH  13  15
ATOM     15  C   UNL     1      36.324  93.432  10.163  1.00  0.00     0.059 A 
ATOM     16  C   UNL     1      35.324  92.579   9.689  1.00  0.00     0.030 A 
ATOM     17  C   UNL     1      37.427  92.845  10.824  1.00  0.00     0.103 A 
ATOM     18  C   UNL     1      35.414  91.201   9.881  1.00  0.00     0.033 A 
ATOM     19  C   UNL     1      37.531  91.462  11.018  1.00  0.00     0.111 A 
ATOM     20  C   UNL     1      38.485  93.679  11.317  1.00  0.00     0.104 C 
ATOM     21  C   UNL     1      36.495  90.633  10.534  1.00  0.00     0.090 A 
ATOM     22  N   UNL     1      38.597  90.917  11.656  1.00  0.00    -0.226 NA
ATOM     23  N   UNL     1      39.297  94.414  11.705  1.00  0.00    -0.192 NA
ATOM     24  N   UNL     1      36.529  89.302  10.687  1.00  0.00    -0.251 NA
ATOM     25  C   UNL     1      38.656  89.580  11.824  1.00  0.00     0.148 A 
ATOM     26  C   UNL     1      37.615  88.800  11.324  1.00  0.00     0.158 A 
BRANCH  25  27
ATOM     27  N   UNL     1      39.756  88.999  12.476  1.00  0.00    -0.351 N 
ATOM     28  C   UNL     1      39.422  88.168  13.659  1.00  0.00     0.146 C 
ATOM     29  C   UNL     1      40.692  88.337  11.534  1.00  0.00     0.146 C 
ATOM     30  C   UNL     1      39.417  86.679  13.285  1.00  0.00     0.181 C 
ATOM     31  C   UNL     1      41.510  87.254  12.251  1.00  0.00     0.181 C 
ATOM     32  O   UNL     1      40.691  86.211  12.801  1.00  0.00    -0.378 OA
ENDBRANCH  25  27
ENDBRANCH  13  15
ENDBRANCH   4  13
TORSDOF 6
ENDMDL
MODEL 2
REMARK minimizedAffinity -8.84509182
REMARK CNNscore 0.502087474
REMARK CNNaffinity 7.49461746
REMARK SMILES C#CCOc1ccc(Nc2ccc3ncc(N4CCOCC4)nc3c2C#N)cc1OC
REMARK SMILES IDX 5 1 6 2 7 3 8 4 28 5 29 6 4 7 3 8 2 9 1 10 30 11 31 12 9 13
REMARK SMILES IDX 10 15 11 16 25 17 12 18 24 19 26 20 13 21 23 22 27 23 14 24
REMARK SMILES IDX 16 25 15 26 17 27 18 28 22 29 19 30 21 31 20 32
REMARK H PARENT 9 14
ROOT
ATOM      1  C   UNL     1      34.174  97.819   9.231  1.00  0.00     0.162 A 
ATOM      2  C   UNL     1      33.641  98.061  10.495  1.00  0.00     0.052 A 
ATOM      3  C   UNL     1      32.798  99.154  10.694  1.00  0.00     0.030 A 
ATOM      4  C   UNL     1      32.482 100.018   9.638  1.00  0.00     0.042 A 
ATOM      5  C   UNL     1      32.996  99.732   8.359  1.00  0.00     0.076 A 
ATOM      6  C   UNL     1      33.828  98.628   8.142  1.00  0.00     0.162 A 
ENDROOT
BRANCH   1   7
ATOM      7  O   UNL     1      34.981  96.720   9.082  1.00  0.00    -0.477 OA
BRANCH   7   8
ATOM      8  C   UNL     1      34.350  95.562   9.642  1.00  0.00     0.318 C 
ATOM      9  C   UNL     1      35.387  94.610  10.070  1.00  0.00    -0.065 C 
ATOM     10  C   UNL     1      36.229  93.843  10.459  1.00  0.00     0.007 C 
ENDBRANCH   7   8
ENDBRANCH   1   7
BRANCH   6  11
ATOM     11  O   UNL     1      34.365  98.286   6.929  1.00  0.00    -0.493 OA
ATOM     12  C   UNL     1      35.672  98.773   6.650  1.00  0.00     0.278 C 
ENDBRANCH   6  11
BRANCH   4  13
ATOM     13  N   UNL     1      31.626 101.130   9.784  1.00  0.00    -0.354 N 
ATOM     14  H   UNL     1      31.707 101.786   9.009  1.00  0.00     0.167 HD
BRANCH  13  15
ATOM     15  C   UNL     1      30.871 101.584  10.887  1.00  0.00     0.059 A 
ATOM     16  C   UNL     1      31.500 101.956  12.078  1.00  0.00     0.030 A 
ATOM     17  C   UNL     1      29.466 101.726  10.815  1.00  0.00     0.103 A 
ATOM     18  C   UNL     1      30.756 102.435  13.156  1.00  0.00     0.033 A 
ATOM     19  C   UNL     1      28.709 102.210  11.889  1.00  0.00     0.111 A 
ATOM     20  C   UNL     1      28.777 101.368   9.609  1.00  0.00     0.104 C 
ATOM     21  C   UNL     1      29.380 102.567  13.080  1.00  0.00     0.090 A 
ATOM     22  N   UNL     1      27.362 102.339  11.802  1.00  0.00    -0.226 NA
ATOM     23  N   UNL     1      28.282 101.044   8.609  1.00  0.00    -0.192 NA
ATOM     24  N   UNL     1      28.718 103.036  14.148  1.00  0.00    -0.251 NA
ATOM     25  C   UNL     1      26.671 102.807  12.862  1.00  0.00     0.148 A 
ATOM     26  C   UNL     1      27.374 103.154  14.014  1.00  0.00     0.158 A 
BRANCH  25  27
ATOM     27  N   UNL     1      25.277 102.953  12.786  1.00  0.00    -0.351 N 
ATOM     28  C   UNL     1      24.760 104.291  13.167  1.00  0.00     0.146 C 
ATOM     29  C   UNL     1      24.719 102.446  11.508  1.00  0.00     0.146 C 
ATOM     30  C   UNL     1      24.475 105.132  11.915  1.00  0.00     0.181 C 
ATOM     31  C   UNL     1      23.374 103.119  11.196  1.00  0.00     0.181 C 
ATOM     32  O   UNL     1      23.487 104.543  11.048  1.00  0.00    -0.378 OA
ENDBRANCH  25  27
ENDBRANCH  13  15
ENDBRANCH   4  13
TORSDOF 6
ENDMDL
MODEL 3
REMARK minimizedAffinity -6.96047115
REMARK CNNscore 0.482729942
REMARK CNNaffinity 6.97157145
REMARK SMILES C#CCOc1ccc(Nc2ccc3ncc(N4CCOCC4)nc3c2C#N)cc1OC
REMARK SMILES IDX 5 1 6 2 7 3 8 4 28 5 29 6 4 7 3 8 2 9 1 10 30 11 31 12 9 13
REMARK SMILES IDX 10 15 11 16 25 17 12 18 24 19 26 20 13 21 23 22 27 23 14 24
REMARK SMILES IDX 16 25 15 26 17 27 18 28 22 29 19 30 21 31 20 32
REMARK H PARENT 9 14
ROOT
ATOM      1  C   UNL     1      36.243  94.733  10.813  1.00  0.00     0.162 A 
ATOM      2  C   UNL     1      35.834  93.497  10.316  1.00  0.00     0.052 A 
ATOM      3  C   UNL     1      36.717  92.418  10.333  1.00  0.00     0.030 A 
ATOM      4  C   UNL     1      38.015  92.560  10.840  1.00  0.00     0.042 A 
ATOM      5  C   UNL     1      38.393  93.806  11.377  1.00  0.00     0.076 A 
ATOM      6  C   UNL     1      37.511  94.892  11.383  1.00  0.00     0.162 A 
ENDROOT
BRANCH   1   7
ATOM      7  O   UNL     1      35.331  95.758  10.793  1.00  0.00    -0.477 OA
BRANCH   7   8
ATOM      8  C   UNL     1      34.213  95.411   9.966  1.00  0.00     0.318 C 
ATOM      9  C   UNL     1      33.440  96.627   9.669  1.00  0.00    -0.065 C 
ATOM     10  C   UNL     1      32.825  97.622   9.388  1.00  0.00     0.007 C 
ENDBRANCH   7   8
ENDBRANCH   1   7
BRANCH   6  11
ATOM     11  O   UNL     1      37.807  96.131  11.886  1.00  0.00    -0.493 OA
ATOM     12  C   UNL     1      37.335  97.249  11.145  1.00  0.00     0.278 C 
ENDBRANCH   6  11
BRANCH   4  13
ATOM     13  N   UNL     1      38.942  91.498  10.890  1.00  0.00    -0.354 N 
ATOM     14  H   UNL     1      39.492  91.422  10.036  1.00  0.00     0.167 HD
BRANCH  13  15
ATOM     15  C   UNL     1      39.078  90.424  11.797  1.00  0.00     0.059 A 
ATOM     16  C   UNL     1      40.196  90.331  12.629  1.00  0.00     0.030 A 
ATOM     17  C   UNL     1      38.074  89.439  11.935  1.00  0.00     0.103 A 
ATOM     18  C   UNL     1      40.314  89.288  13.547  1.00  0.00     0.033 A 
ATOM     19  C   UNL     1      38.179  88.390  12.857  1.00  0.00     0.111 A 
ATOM     20  C   UNL     1      36.900  89.501  11.111  1.00  0.00     0.104 C 
ATOM     21  C   UNL     1      39.329  88.324  13.674  1.00  0.00     0.090 A 
ATOM     22  N   UNL     1      37.205  87.453  12.974  1.00  0.00    -0.226 NA
ATOM     23  N   UNL     1      35.986  89.601  10.402  1.00  0.00    -0.192 NA
ATOM     24  N   UNL     1      39.497  87.346  14.576  1.00  0.00    -0.251 NA
ATOM     25  C   UNL     1      37.348  86.458  13.874  1.00  0.00     0.148 A 
ATOM     26  C   UNL     1      38.496  86.436  14.663  1.00  0.00     0.158 A 
BRANCH  25  27
ATOM     27  N   UNL     1      36.347  85.484  14.013  1.00  0.00    -0.351 N 
ATOM     28  C   UNL     1      35.378  85.410  12.893  1.00  0.00     0.146 C 
ATOM     29  C   UNL     1      36.889  84.162  14.414  1.00  0.00     0.146 C 
ATOM     30  C   UNL     1      35.745  84.263  11.940  1.00  0.00     0.181 C 
ATOM     31  C   UNL     1      35.935  83.034  13.997  1.00  0.00     0.181 C 
ATOM     32  O   UNL     1      35.736  82.971  12.577  1.00  0.00    -0.378 OA
ENDBRANCH  25  27
ENDBRANCH  13  15
ENDBRANCH   4  13
TORSDOF 6
ENDMDL
MODEL 4
REMARK minimizedAffinity -8.66049099
REMARK CNNscore 0.465250641
REMARK CNNaffinity 7.68421173
REMARK SMILES C#CCOc1ccc(Nc2ccc3ncc(N4CCOCC4)nc3c2C#N)cc1OC
REMARK SMILES IDX 5 1 6 2 7 3 8 4 28 5 29 6 4 7 3 8 2 9 1 10 30 11 31 12 9 13
REMARK SMILES IDX 10 15 11 16 25 17 12 18 24 19 26 20 13 21 23 22 27 23 14 24
REMARK SMILES IDX 16 25 15 26 17 27 18 28 22 29 19 30 21 31 20 32
REMARK H PARENT 9 14
ROOT
ATOM      1  C   UNL     1      32.694  99.653   8.286  1.00  0.00     0.162 A 
ATOM      2  C   UNL     1      33.066 100.955   8.611  1.00  0.00     0.052 A 
ATOM      3  C   UNL     1      32.599 101.535   9.791  1.00  0.00     0.030 A 
ATOM      4  C   UNL     1      31.755 100.825  10.654  1.00  0.00     0.042 A 
ATOM      5  C   UNL     1      31.426  99.496  10.328  1.00  0.00     0.076 A 
ATOM      6  C   UNL     1      31.902  98.896   9.157  1.00  0.00     0.162 A 
ENDROOT
BRANCH   1   7
ATOM      7  O   UNL     1      33.195  99.120   7.125  1.00  0.00    -0.477 OA
BRANCH   7   8
ATOM      8  C   UNL     1      34.625  99.044   7.192  1.00  0.00     0.318 C 
ATOM      9  C   UNL     1      35.007  97.956   8.106  1.00  0.00    -0.065 C 
ATOM     10  C   UNL     1      35.327  97.043   8.820  1.00  0.00     0.007 C 
ENDBRANCH   7   8
ENDBRANCH   1   7
BRANCH   6  11
ATOM     11  O   UNL     1      31.625  97.610   8.774  1.00  0.00    -0.493 OA
ATOM     12  C   UNL     1      31.923  96.586   9.716  1.00  0.00     0.278 C 
ENDBRANCH   6  11
BRANCH   4  13
ATOM     13  N   UNL     1      31.265 101.361  11.863  1.00  0.00    -0.354 N 
ATOM     14  H   UNL     1      31.780 101.023  12.675  1.00  0.00     0.167 HD
BRANCH  13  15
ATOM     15  C   UNL     1      30.086 102.084  12.149  1.00  0.00     0.059 A 
ATOM     16  C   UNL     1      29.929 102.734  13.376  1.00  0.00     0.030 A 
ATOM     17  C   UNL     1      29.051 102.219  11.197  1.00  0.00     0.103 A 
ATOM     18  C   UNL     1      28.779 103.475  13.645  1.00  0.00     0.033 A 
ATOM     19  C   UNL     1      27.893 102.964  11.455  1.00  0.00     0.111 A 
ATOM     20  C   UNL     1      29.173 101.580   9.919  1.00  0.00     0.104 C 
ATOM     21  C   UNL     1      27.765 103.599  12.710  1.00  0.00     0.090 A 
ATOM     22  N   UNL     1      26.909 103.082  10.529  1.00  0.00    -0.226 NA
ATOM     23  N   UNL     1      29.330 101.023   8.912  1.00  0.00    -0.192 NA
ATOM     24  N   UNL     1      26.684 104.326  13.025  1.00  0.00    -0.251 NA
ATOM     25  C   UNL     1      25.809 103.808  10.820  1.00  0.00     0.148 A 
ATOM     26  C   UNL     1      25.729 104.422  12.068  1.00  0.00     0.158 A 
BRANCH  25  27
ATOM     27  N   UNL     1      24.784 103.946   9.870  1.00  0.00    -0.351 N 
ATOM     28  C   UNL     1      25.215 103.838   8.455  1.00  0.00     0.146 C 
ATOM     29  C   UNL     1      23.595 103.118  10.191  1.00  0.00     0.146 C 
ATOM     30  C   UNL     1      24.928 102.431   7.912  1.00  0.00     0.181 C 
ATOM     31  C   UNL     1      22.781 102.821   8.923  1.00  0.00     0.181 C 
ATOM     32  O   UNL     1      23.529 102.086   7.942  1.00  0.00    -0.378 OA
ENDBRANCH  25  27
ENDBRANCH  13  15
ENDBRANCH   4  13
TORSDOF 6
ENDMDL
MODEL 5
REMARK minimizedAffinity -7.39492273
REMARK CNNscore 0.418933958
REMARK CNNaffinity 7.31726122
REMARK SMILES C#CCOc1ccc(Nc2ccc3ncc(N4CCOCC4)nc3c2C#N)cc1OC
REMARK SMILES IDX 5 1 6 2 7 3 8 4 28 5 29 6 4 7 3 8 2 9 1 10 30 11 31 12 9 13
REMARK SMILES IDX 10 15 11 16 25 17 12 18 24 19 26 20 13 21 23 22 27 23 14 24
REMARK SMILES IDX 16 25 15 26 17 27 18 28 22 29 19 30 21 31 20 32
REMARK H PARENT 9 14
ROOT
ATOM      1  C   UNL     1      33.436  98.821   9.461  1.00  0.00     0.162 A 
ATOM      2  C   UNL     1      33.338  98.076  10.633  1.00  0.00     0.052 A 
ATOM      3  C   UNL     1      33.772  96.750  10.649  1.00  0.00     0.030 A 
ATOM      4  C   UNL     1      34.303  96.155   9.498  1.00  0.00     0.042 A 
ATOM      5  C   UNL     1      34.434  96.939   8.336  1.00  0.00     0.076 A 
ATOM      6  C   UNL     1      34.019  98.275   8.311  1.00  0.00     0.162 A 
ENDROOT
BRANCH   1   7
ATOM      7  O   UNL     1      33.015 100.126   9.501  1.00  0.00    -0.477 OA
BRANCH   7   8
ATOM      8  C   UNL     1      31.599 100.183   9.713  1.00  0.00     0.318 C 
ATOM      9  C   UNL     1      31.322 101.024  10.889  1.00  0.00    -0.065 C 
ATOM     10  C   UNL     1      31.085 101.741  11.825  1.00  0.00     0.007 C 
ENDBRANCH   7   8
ENDBRANCH   1   7
BRANCH   6  11
ATOM     11  O   UNL     1      34.114  99.099   7.221  1.00  0.00    -0.493 OA
ATOM     12  C   UNL     1      35.423  99.352   6.725  1.00  0.00     0.278 C 
ENDBRANCH   6  11
BRANCH   4  13
ATOM     13  N   UNL     1      34.766  94.823   9.465  1.00  0.00    -0.354 N 
ATOM     14  H   UNL     1      34.128  94.202   8.969  1.00  0.00     0.167 HD
BRANCH  13  15
ATOM     15  C   UNL     1      35.811  94.184  10.166  1.00  0.00     0.059 A 
ATOM     16  C   UNL     1      36.598  94.895  11.076  1.00  0.00     0.030 A 
ATOM     17  C   UNL     1      36.068  92.802  10.016  1.00  0.00     0.103 A 
ATOM     18  C   UNL     1      37.609  94.255  11.793  1.00  0.00     0.033 A 
ATOM     19  C   UNL     1      37.077  92.148  10.734  1.00  0.00     0.111 A 
ATOM     20  C   UNL     1      35.278  92.028   9.103  1.00  0.00     0.104 C 
ATOM     21  C   UNL     1      37.859  92.902  11.638  1.00  0.00     0.090 A 
ATOM     22  N   UNL     1      37.310  90.821  10.577  1.00  0.00    -0.226 NA
ATOM     23  N   UNL     1      34.612  91.466   8.335  1.00  0.00    -0.192 NA
ATOM     24  N   UNL     1      38.842  92.342  12.356  1.00  0.00    -0.251 NA
ATOM     25  C   UNL     1      38.294  90.232  11.287  1.00  0.00     0.148 A 
ATOM     26  C   UNL     1      39.035  91.013  12.171  1.00  0.00     0.158 A 
BRANCH  25  27
ATOM     27  N   UNL     1      38.544  88.858  11.141  1.00  0.00    -0.351 N 
ATOM     28  C   UNL     1      39.977  88.476  11.108  1.00  0.00     0.146 C 
ATOM     29  C   UNL     1      37.732  88.030  12.066  1.00  0.00     0.146 C 
ATOM     30  C   UNL     1      40.427  87.963  12.483  1.00  0.00     0.181 C 
ATOM     31  C   UNL     1      38.406  86.672  12.314  1.00  0.00     0.181 C 
ATOM     32  O   UNL     1      39.702  86.798  12.919  1.00  0.00    -0.378 OA
ENDBRANCH  25  27
ENDBRANCH  13  15
ENDBRANCH   4  13
TORSDOF 6
ENDMDL
MODEL 6
REMARK minimizedAffinity -5.6239562
REMARK CNNscore 0.341020167
REMARK CNNaffinity 7.43551111
REMARK SMILES C#CCOc1ccc(Nc2ccc3ncc(N4CCOCC4)nc3c2C#N)cc1OC
REMARK SMILES IDX 5 1 6 2 7 3 8 4 28 5 29 6 4 7 3 8 2 9 1 10 30 11 31 12 9 13
REMARK SMILES IDX 10 15 11 16 25 17 12 18 24 19 26 20 13 21 23 22 27 23 14 24
REMARK SMILES IDX 16 25 15 26 17 27 18 28 22 29 19 30 21 31 20 32
REMARK H PARENT 9 14
ROOT
ATOM      1  C   UNL     1      28.867 102.410  10.779  1.00  0.00     0.162 A 
ATOM      2  C   UNL     1      30.014 102.045  11.479  1.00  0.00     0.052 A 
ATOM      3  C   UNL     1      30.847 101.047  10.972  1.00  0.00     0.030 A 
ATOM      4  C   UNL     1      30.542 100.402   9.767  1.00  0.00     0.042 A 
ATOM      5  C   UNL     1      29.401 100.816   9.054  1.00  0.00     0.076 A 
ATOM      6  C   UNL     1      28.567 101.827   9.542  1.00  0.00     0.162 A 
ENDROOT
BRANCH   1   7
ATOM      7  O   UNL     1      28.091 103.409  11.308  1.00  0.00    -0.477 OA
BRANCH   7   8
ATOM      8  C   UNL     1      27.185 102.872  12.280  1.00  0.00     0.318 C 
ATOM      9  C   UNL     1      27.812 102.939  13.610  1.00  0.00    -0.065 C 
ATOM     10  C   UNL     1      28.301 103.026  14.705  1.00  0.00     0.007 C 
ENDBRANCH   7   8
ENDBRANCH   1   7
BRANCH   6  11
ATOM     11  O   UNL     1      27.442 102.283   8.905  1.00  0.00    -0.493 OA
ATOM     12  C   UNL     1      27.405 103.670   8.592  1.00  0.00     0.278 C 
ENDBRANCH   6  11
BRANCH   4  13
ATOM     13  N   UNL     1      31.357  99.396   9.206  1.00  0.00    -0.354 N 
ATOM     14  H   UNL     1      30.852  98.816   8.537  1.00  0.00     0.167 HD
BRANCH  13  15
ATOM     15  C   UNL     1      32.641  98.932   9.564  1.00  0.00     0.059 A 
ATOM     16  C   UNL     1      33.569  99.790  10.159  1.00  0.00     0.030 A 
ATOM     17  C   UNL     1      33.018  97.582   9.384  1.00  0.00     0.103 A 
ATOM     18  C   UNL     1      34.826  99.323  10.543  1.00  0.00     0.033 A 
ATOM     19  C   UNL     1      34.275  97.100   9.770  1.00  0.00     0.111 A 
ATOM     20  C   UNL     1      32.094  96.659   8.789  1.00  0.00     0.104 C 
ATOM     21  C   UNL     1      35.190  98.000  10.359  1.00  0.00     0.090 A 
ATOM     22  N   UNL     1      34.620  95.800   9.588  1.00  0.00    -0.226 NA
ATOM     23  N   UNL     1      31.304  95.972   8.286  1.00  0.00    -0.192 NA
ATOM     24  N   UNL     1      36.411  97.608  10.750  1.00  0.00    -0.251 NA
ATOM     25  C   UNL     1      35.842  95.379   9.972  1.00  0.00     0.148 A 
ATOM     26  C   UNL     1      36.710  96.300  10.555  1.00  0.00     0.158 A 
BRANCH  25  27
ATOM     27  N   UNL     1      36.213  94.036   9.798  1.00  0.00    -0.351 N 
ATOM     28  C   UNL     1      37.624  93.722  10.128  1.00  0.00     0.146 C 
ATOM     29  C   UNL     1      35.240  93.094  10.404  1.00  0.00     0.146 C 
ATOM     30  C   UNL     1      37.723  93.109  11.532  1.00  0.00     0.181 C 
ATOM     31  C   UNL     1      35.911  91.750  10.724  1.00  0.00     0.181 C 
ATOM     32  O   UNL     1      36.986  91.878  11.667  1.00  0.00    -0.378 OA
ENDBRANCH  25  27
ENDBRANCH  13  15
ENDBRANCH   4  13
TORSDOF 6
ENDMDL
MODEL 7
REMARK minimizedAffinity -7.7388382
REMARK CNNscore 0.332359582
REMARK CNNaffinity 6.79955101
REMARK SMILES C#CCOc1ccc(Nc2ccc3ncc(N4CCOCC4)nc3c2C#N)cc1OC
REMARK SMILES IDX 5 1 6 2 7 3 8 4 28 5 29 6 4 7 3 8 2 9 1 10 30 11 31 12 9 13
REMARK SMILES IDX 10 15 11 16 25 17 12 18 24 19 26 20 13 21 23 22 27 23 14 24
REMARK SMILES IDX 16 25 15 26 17 27 18 28 22 29 19 30 21 31 20 32
REMARK H PARENT 9 14
ROOT
ATOM      1  C   UNL     1      36.546  94.661  10.220  1.00  0.00     0.162 A 
ATOM      2  C   UNL     1      35.813  93.536   9.849  1.00  0.00     0.052 A 
ATOM      3  C   UNL     1      36.219  92.273  10.279  1.00  0.00     0.030 A 
ATOM      4  C   UNL     1      37.358  92.118  11.078  1.00  0.00     0.042 A 
ATOM      5  C   UNL     1      38.060  93.272  11.477  1.00  0.00     0.076 A 
ATOM      6  C   UNL     1      37.654  94.547  11.068  1.00  0.00     0.162 A 
ENDROOT
BRANCH   1   7
ATOM      7  O   UNL     1      36.096  95.883   9.788  1.00  0.00    -0.477 OA
BRANCH   7   8
ATOM      8  C   UNL     1      34.666  95.877   9.688  1.00  0.00     0.318 C 
ATOM      9  C   UNL     1      34.159  97.227   9.983  1.00  0.00    -0.065 C 
ATOM     10  C   UNL     1      33.738  98.336  10.183  1.00  0.00     0.007 C 
ENDBRANCH   7   8
ENDBRANCH   1   7
BRANCH   6  11
ATOM     11  O   UNL     1      38.284  95.713  11.415  1.00  0.00    -0.493 OA
ATOM     12  C   UNL     1      37.449  96.798  11.801  1.00  0.00     0.278 C 
ENDBRANCH   6  11
BRANCH   4  13
ATOM     13  N   UNL     1      37.804  90.865  11.549  1.00  0.00    -0.354 N 
ATOM     14  H   UNL     1      38.567  90.951  12.219  1.00  0.00     0.167 HD
BRANCH  13  15
ATOM     15  C   UNL     1      37.535  89.554  11.099  1.00  0.00     0.059 A 
ATOM     16  C   UNL     1      38.540  88.783  10.508  1.00  0.00     0.030 A 
ATOM     17  C   UNL     1      36.266  88.957  11.273  1.00  0.00     0.103 A 
ATOM     18  C   UNL     1      38.282  87.477  10.094  1.00  0.00     0.033 A 
ATOM     19  C   UNL     1      35.997  87.644  10.866  1.00  0.00     0.111 A 
ATOM     20  C   UNL     1      35.207  89.705  11.887  1.00  0.00     0.104 C 
ATOM     21  C   UNL     1      37.035  86.899  10.263  1.00  0.00     0.090 A 
ATOM     22  N   UNL     1      34.772  87.087  11.041  1.00  0.00    -0.226 NA
ATOM     23  N   UNL     1      34.392  90.373  12.375  1.00  0.00    -0.192 NA
ATOM     24  N   UNL     1      36.847  85.638   9.848  1.00  0.00    -0.251 NA
ATOM     25  C   UNL     1      34.556  85.820  10.631  1.00  0.00     0.148 A 
ATOM     26  C   UNL     1      35.611  85.121  10.048  1.00  0.00     0.158 A 
BRANCH  25  27
ATOM     27  N   UNL     1      33.296  85.227  10.811  1.00  0.00    -0.351 N 
ATOM     28  C   UNL     1      32.144  86.158  10.743  1.00  0.00     0.146 C 
ATOM     29  C   UNL     1      33.119  84.006   9.987  1.00  0.00     0.146 C 
ATOM     30  C   UNL     1      31.486  86.097   9.357  1.00  0.00     0.181 C 
ATOM     31  C   UNL     1      31.629  83.728   9.739  1.00  0.00     0.181 C 
ATOM     32  O   UNL     1      30.978  84.791   9.027  1.00  0.00    -0.378 OA
ENDBRANCH  25  27
ENDBRANCH  13  15
ENDBRANCH   4  13
TORSDOF 6
ENDMDL
MODEL 8
REMARK minimizedAffinity -8.12084007
REMARK CNNscore 0.3258982
REMARK CNNaffinity 6.72518587
REMARK SMILES C#CCOc1ccc(Nc2ccc3ncc(N4CCOCC4)nc3c2C#N)cc1OC
REMARK SMILES IDX 5 1 6 2 7 3 8 4 28 5 29 6 4 7 3 8 2 9 1 10 30 11 31 12 9 13
REMARK SMILES IDX 10 15 11 16 25 17 12 18 24 19 26 20 13 21 23 22 27 23 14 24
REMARK SMILES IDX 16 25 15 26 17 27 18 28 22 29 19 30 21 31 20 32
REMARK H PARENT 9 14
ROOT
ATOM      1  C   UNL     1      36.324  95.017  10.370  1.00  0.00     0.162 A 
ATOM      2  C   UNL     1      35.611  93.930   9.870  1.00  0.00     0.052 A 
ATOM      3  C   UNL     1      36.105  92.638  10.043  1.00  0.00     0.030 A 
ATOM      4  C   UNL     1      37.316  92.416  10.711  1.00  0.00     0.042 A 
ATOM      5  C   UNL     1      38.000  93.524  11.246  1.00  0.00     0.076 A 
ATOM      6  C   UNL     1      37.506  94.825  11.096  1.00  0.00     0.162 A 
ENDROOT
BRANCH   1   7
ATOM      7  O   UNL     1      35.786  96.266  10.192  1.00  0.00    -0.477 OA
BRANCH   7   8
ATOM      8  C   UNL     1      34.573  96.180   9.434  1.00  0.00     0.318 C 
ATOM      9  C   UNL     1      34.569  97.237   8.411  1.00  0.00    -0.065 C 
ATOM     10  C   UNL     1      34.577  98.072   7.546  1.00  0.00     0.007 C 
ENDBRANCH   7   8
ENDBRANCH   1   7
BRANCH   6  11
ATOM     11  O   UNL     1      38.113  95.950  11.588  1.00  0.00    -0.493 OA
ATOM     12  C   UNL     1      37.313  97.123  11.668  1.00  0.00     0.278 C 
ENDBRANCH   6  11
BRANCH   4  13
ATOM     13  N   UNL     1      37.854  91.129  10.922  1.00  0.00    -0.354 N 
ATOM     14  H   UNL     1      38.768  91.014  10.486  1.00  0.00     0.167 HD
BRANCH  13  15
ATOM     15  C   UNL     1      37.268  89.947  11.424  1.00  0.00     0.059 A 
ATOM     16  C   UNL     1      35.917  89.670  11.198  1.00  0.00     0.030 A 
ATOM     17  C   UNL     1      38.028  88.982  12.123  1.00  0.00     0.103 A 
ATOM     18  C   UNL     1      35.346  88.487  11.666  1.00  0.00     0.033 A 
ATOM     19  C   UNL     1      37.467  87.788  12.593  1.00  0.00     0.111 A 
ATOM     20  C   UNL     1      39.422  89.217  12.368  1.00  0.00     0.104 C 
ATOM     21  C   UNL     1      36.095  87.548  12.355  1.00  0.00     0.090 A 
ATOM     22  N   UNL     1      38.212  86.874  13.264  1.00  0.00    -0.226 NA
ATOM     23  N   UNL     1      40.539  89.479  12.545  1.00  0.00    -0.192 NA
ATOM     24  N   UNL     1      35.493  86.428  12.777  1.00  0.00    -0.251 NA
ATOM     25  C   UNL     1      37.630  85.738  13.701  1.00  0.00     0.148 A 
ATOM     26  C   UNL     1      36.276  85.540  13.437  1.00  0.00     0.158 A 
BRANCH  25  27
ATOM     27  N   UNL     1      38.388  84.778  14.391  1.00  0.00    -0.351 N 
ATOM     28  C   UNL     1      39.078  83.783  13.533  1.00  0.00     0.146 C 
ATOM     29  C   UNL     1      39.268  85.380  15.423  1.00  0.00     0.146 C 
ATOM     30  C   UNL     1      40.552  84.169  13.343  1.00  0.00     0.181 C 
ATOM     31  C   UNL     1      40.458  84.459  15.728  1.00  0.00     0.181 C 
ATOM     32  O   UNL     1      41.288  84.225  14.580  1.00  0.00    -0.378 OA
ENDBRANCH  25  27
ENDBRANCH  13  15
ENDBRANCH   4  13
TORSDOF 6
ENDMDL
MODEL 9
REMARK minimizedAffinity -7.59580612
REMARK CNNscore 0.319368601
REMARK CNNaffinity 6.72578621
REMARK SMILES C#CCOc1ccc(Nc2ccc3ncc(N4CCOCC4)nc3c2C#N)cc1OC
REMARK SMILES IDX 5 1 6 2 7 3 8 4 28 5 29 6 4 7 3 8 2 9 1 10 30 11 31 12 9 13
REMARK SMILES IDX 10 15 11 16 25 17 12 18 24 19 26 20 13 21 23 22 27 23 14 24
REMARK SMILES IDX 16 25 15 26 17 27 18 28 22 29 19 30 21 31 20 32
REMARK H PARENT 9 14
ROOT
ATOM      1  C   UNL     1      36.479  94.812  10.268  1.00  0.00     0.162 A 
ATOM      2  C   UNL     1      35.819  93.600  10.082  1.00  0.00     0.052 A 
ATOM      3  C   UNL     1      36.295  92.449  10.709  1.00  0.00     0.030 A 
ATOM      4  C   UNL     1      37.434  92.493  11.522  1.00  0.00     0.042 A 
ATOM      5  C   UNL     1      38.062  93.736  11.731  1.00  0.00     0.076 A 
ATOM      6  C   UNL     1      37.584  94.902  11.123  1.00  0.00     0.162 A 
ENDROOT
BRANCH   1   7
ATOM      7  O   UNL     1      35.961  95.920   9.647  1.00  0.00    -0.477 OA
BRANCH   7   8
ATOM      8  C   UNL     1      34.528  95.879   9.675  1.00  0.00     0.318 C 
ATOM      9  C   UNL     1      34.014  97.234   9.930  1.00  0.00    -0.065 C 
ATOM     10  C   UNL     1      33.584  98.345  10.099  1.00  0.00     0.007 C 
ENDBRANCH   7   8
ENDBRANCH   1   7
BRANCH   6  11
ATOM     11  O   UNL     1      38.140  96.145  11.279  1.00  0.00    -0.493 OA
ATOM     12  C   UNL     1      37.289  97.165  11.788  1.00  0.00     0.278 C 
ENDBRANCH   6  11
BRANCH   4  13
ATOM     13  N   UNL     1      37.950  91.361  12.187  1.00  0.00    -0.354 N 
ATOM     14  H   UNL     1      38.266  91.575  13.132  1.00  0.00     0.167 HD
BRANCH  13  15
ATOM     15  C   UNL     1      38.296  90.079  11.708  1.00  0.00     0.059 A 
ATOM     16  C   UNL     1      39.619  89.774  11.378  1.00  0.00     0.030 A 
ATOM     17  C   UNL     1      37.336  89.047  11.591  1.00  0.00     0.103 A 
ATOM     18  C   UNL     1      39.966  88.498  10.936  1.00  0.00     0.033 A 
ATOM     19  C   UNL     1      37.674  87.761  11.153  1.00  0.00     0.111 A 
ATOM     20  C   UNL     1      35.967  89.309  11.930  1.00  0.00     0.104 C 
ATOM     21  C   UNL     1      39.020  87.493  10.820  1.00  0.00     0.090 A 
ATOM     22  N   UNL     1      36.739  86.783  11.046  1.00  0.00    -0.226 NA
ATOM     23  N   UNL     1      34.875  89.595  12.205  1.00  0.00    -0.192 NA
ATOM     24  N   UNL     1      39.413  86.285  10.391  1.00  0.00    -0.251 NA
ATOM     25  C   UNL     1      37.107  85.558  10.617  1.00  0.00     0.148 A 
ATOM     26  C   UNL     1      38.447  85.338  10.306  1.00  0.00     0.158 A 
BRANCH  25  27
ATOM     27  N   UNL     1      36.154  84.534  10.508  1.00  0.00    -0.351 N 
ATOM     28  C   UNL     1      36.229  83.486  11.556  1.00  0.00     0.146 C 
ATOM     29  C   UNL     1      34.781  85.053  10.289  1.00  0.00     0.146 C 
ATOM     30  C   UNL     1      35.182  83.743  12.648  1.00  0.00     0.181 C 
ATOM     31  C   UNL     1      33.733  84.031  10.752  1.00  0.00     0.181 C 
ATOM     32  O   UNL     1      33.829  83.731  12.152  1.00  0.00    -0.378 OA
ENDBRANCH  25  27
ENDBRANCH  13  15
ENDBRANCH   4  13
TORSDOF 6
ENDMDL
