MODEL 1
REMARK minimizedAffinity -7.98959446
REMARK CNNscore 0.352804124
REMARK CNNaffinity 7.93652487
REMARK SMILES CC(=O)Nc1ccc(-c2cc3c(N4CCN(C(=O)Nc5ccc(OC(F)(F)F)cc5)CC4)ncnc3[nH]2)cn1
REMARK SMILES IDX 13 1 14 2 15 3 16 4 17 5 18 6 19 7 31 8 32 9 12 11 9 12
REMARK SMILES IDX 10 13 37 14 11 15 36 16 35 17 33 18 34 19 8 21 5 22 6 23
REMARK SMILES IDX 39 24 7 25 38 26 4 27 2 28 3 29 1 30 20 32 21 33 30 34 22 35
REMARK SMILES IDX 29 36 23 37 24 38 25 39 26 40 27 41 28 42
REMARK H PARENT 19 10 37 20 4 31
ROOT
ATOM      1  N   UNL     1      32.705  99.466   8.702  1.00  0.00    -0.352 N 
ATOM      2  C   UNL     1      32.902 100.418   9.804  1.00  0.00     0.139 C 
ATOM      3  C   UNL     1      31.570 100.651  10.539  1.00  0.00     0.143 C 
ATOM      4  N   UNL     1      30.470 101.047   9.647  1.00  0.00    -0.321 N 
ATOM      5  C   UNL     1      29.254 101.583  10.055  1.00  0.00     0.321 C 
ATOM      6  O   UNL     1      28.470 102.064   9.240  1.00  0.00    -0.248 OA
ATOM      7  N   UNL     1      29.030 101.511  11.414  1.00  0.00    -0.308 N 
ATOM      8  C   UNL     1      30.771 100.999   8.214  1.00  0.00     0.143 C 
ATOM      9  C   UNL     1      31.554  99.732   7.816  1.00  0.00     0.139 C 
ATOM     10  H   UNL     1      29.657 100.926  11.934  1.00  0.00     0.171 HD
ENDROOT
BRANCH   1  11
ATOM     11  C   UNL     1      33.880  99.077   8.048  1.00  0.00     0.141 A 
ATOM     12  C   UNL     1      35.572  95.989   9.173  1.00  0.00     0.049 A 
ATOM     13  C   UNL     1      34.499  96.856   9.335  1.00  0.00     0.042 A 
ATOM     14  N   UNL     1      36.324  96.508   8.137  1.00  0.00    -0.339 N 
ATOM     15  C   UNL     1      34.606  97.912   8.382  1.00  0.00     0.062 A 
ATOM     16  C   UNL     1      35.759  97.659   7.661  1.00  0.00     0.143 A 
ATOM     17  N   UNL     1      36.274  98.397   6.669  1.00  0.00    -0.218 NA
ATOM     18  N   UNL     1      34.395  99.865   7.065  1.00  0.00    -0.219 NA
ATOM     19  C   UNL     1      35.529  99.488   6.441  1.00  0.00     0.226 A 
ATOM     20  H   UNL     1      37.176  96.117   7.759  1.00  0.00     0.168 HD
BRANCH  12  21
ATOM     21  C   UNL     1      35.931  94.769   9.897  1.00  0.00     0.017 A 
ATOM     22  C   UNL     1      36.634  92.485  11.316  1.00  0.00     0.132 A 
ATOM     23  C   UNL     1      35.887  92.362  10.149  1.00  0.00     0.048 A 
ATOM     24  N   UNL     1      37.024  93.682  11.778  1.00  0.00    -0.238 NA
ATOM     25  C   UNL     1      35.535  93.513   9.438  1.00  0.00     0.016 A 
ATOM     26  C   UNL     1      36.667  94.785  11.076  1.00  0.00     0.123 A 
BRANCH  22  27
ATOM     27  N   UNL     1      36.962  91.306  11.999  1.00  0.00    -0.311 N 
ATOM     28  C   UNL     1      37.030  90.048  11.432  1.00  0.00     0.222 C 
ATOM     29  O   UNL     1      36.816  89.732  10.268  1.00  0.00    -0.275 OA
ATOM     30  C   UNL     1      37.427  89.006  12.449  1.00  0.00     0.114 C 
ATOM     31  H   UNL     1      37.159  91.388  12.985  1.00  0.00     0.171 HD
ENDBRANCH  22  27
ENDBRANCH  12  21
ENDBRANCH   1  11
BRANCH   7  32
ATOM     32  C   UNL     1      27.935 102.029  12.139  1.00  0.00     0.043 A 
ATOM     33  C   UNL     1      26.724 102.165  11.453  1.00  0.00     0.030 A 
ATOM     34  C   UNL     1      27.985 102.396  13.483  1.00  0.00     0.030 A 
ATOM     35  C   UNL     1      25.594 102.674  12.101  1.00  0.00     0.049 A 
ATOM     36  C   UNL     1      26.850 102.902  14.135  1.00  0.00     0.049 A 
ATOM     37  C   UNL     1      25.647 103.047  13.446  1.00  0.00     0.129 A 
BRANCH  37  38
ATOM     38  O   UNL     1      24.475 103.530  13.948  1.00  0.00    -0.406 OA
BRANCH  38  39
ATOM     39  C   UNL     1      24.162 104.890  13.705  1.00  0.00     0.573 C 
ATOM     40  F   UNL     1      23.466 105.366  14.762  1.00  0.00    -0.132 F 
ATOM     41  F   UNL     1      23.396 105.028  12.604  1.00  0.00    -0.132 F 
ATOM     42  F   UNL     1      25.281 105.632  13.575  1.00  0.00    -0.132 F 
ENDBRANCH  38  39
ENDBRANCH  37  38
ENDBRANCH   7  32
TORSDOF 6
ENDMDL
MODEL 2
REMARK minimizedAffinity -10.7435055
REMARK CNNscore 0.348363608
REMARK CNNaffinity 7.80768967
REMARK SMILES CC(=O)Nc1ccc(-c2cc3c(N4CCN(C(=O)Nc5ccc(OC(F)(F)F)cc5)CC4)ncnc3[nH]2)cn1
REMARK SMILES IDX 13 1 14 2 15 3 16 4 17 5 18 6 19 7 31 8 32 9 12 11 9 12
REMARK SMILES IDX 10 13 37 14 11 15 36 16 35 17 33 18 34 19 8 21 5 22 6 23
REMARK SMILES IDX 39 24 7 25 38 26 4 27 2 28 3 29 1 30 20 32 21 33 30 34 22 35
REMARK SMILES IDX 29 36 23 37 24 38 25 39 26 40 27 41 28 42
REMARK H PARENT 19 10 37 20 4 31
ROOT
ATOM      1  N   UNL     1      35.933  89.849  11.423  1.00  0.00    -0.352 N 
ATOM      2  C   UNL     1      35.134  89.854  10.189  1.00  0.00     0.139 C 
ATOM      3  C   UNL     1      33.927  88.911  10.343  1.00  0.00     0.143 C 
ATOM      4  N   UNL     1      34.296  87.551  10.765  1.00  0.00    -0.321 N 
ATOM      5  C   UNL     1      33.466  86.437  10.715  1.00  0.00     0.321 C 
ATOM      6  O   UNL     1      33.911  85.309  10.904  1.00  0.00    -0.248 OA
ATOM      7  N   UNL     1      32.144  86.728  10.450  1.00  0.00    -0.308 N 
ATOM      8  C   UNL     1      35.705  87.363  11.122  1.00  0.00     0.143 C 
ATOM      9  C   UNL     1      36.261  88.519  11.976  1.00  0.00     0.139 C 
ATOM     10  H   UNL     1      31.884  87.695  10.509  1.00  0.00     0.171 HD
ENDROOT
BRANCH   1  11
ATOM     11  C   UNL     1      36.982  90.775  11.444  1.00  0.00     0.141 A 
ATOM     12  C   UNL     1      36.245  94.279  10.525  1.00  0.00     0.049 A 
ATOM     13  C   UNL     1      35.753  92.994  10.711  1.00  0.00     0.042 A 
ATOM     14  N   UNL     1      37.594  94.213  10.819  1.00  0.00    -0.339 N 
ATOM     15  C   UNL     1      36.819  92.142  11.124  1.00  0.00     0.062 A 
ATOM     16  C   UNL     1      37.948  92.940  11.172  1.00  0.00     0.143 A 
ATOM     17  N   UNL     1      39.193  92.566  11.492  1.00  0.00    -0.218 NA
ATOM     18  N   UNL     1      38.242  90.357  11.742  1.00  0.00    -0.219 NA
ATOM     19  C   UNL     1      39.250  91.253  11.757  1.00  0.00     0.226 A 
ATOM     20  H   UNL     1      38.253  94.978  10.787  1.00  0.00     0.168 HD
BRANCH  12  21
ATOM     21  C   UNL     1      35.573  95.507  10.100  1.00  0.00     0.017 A 
ATOM     22  C   UNL     1      34.344  97.871   9.307  1.00  0.00     0.132 A 
ATOM     23  C   UNL     1      33.724  96.655   9.041  1.00  0.00     0.048 A 
ATOM     24  N   UNL     1      35.526  97.934   9.939  1.00  0.00    -0.238 NA
ATOM     25  C   UNL     1      34.344  95.468   9.441  1.00  0.00     0.016 A 
ATOM     26  C   UNL     1      36.112  96.771  10.312  1.00  0.00     0.123 A 
BRANCH  22  27
ATOM     27  N   UNL     1      33.688  99.036   8.887  1.00  0.00    -0.311 N 
ATOM     28  C   UNL     1      32.423  99.084   8.334  1.00  0.00     0.222 C 
ATOM     29  O   UNL     1      31.663  98.151   8.106  1.00  0.00    -0.275 OA
ATOM     30  C   UNL     1      32.017 100.501   8.009  1.00  0.00     0.114 C 
ATOM     31  H   UNL     1      34.186  99.906   8.995  1.00  0.00     0.171 HD
ENDBRANCH  22  27
ENDBRANCH  12  21
ENDBRANCH   1  11
BRANCH   7  32
ATOM     32  C   UNL     1      31.080  85.820  10.263  1.00  0.00     0.043 A 
ATOM     33  C   UNL     1      30.971  85.215   9.007  1.00  0.00     0.030 A 
ATOM     34  C   UNL     1      30.151  85.484  11.247  1.00  0.00     0.030 A 
ATOM     35  C   UNL     1      29.941  84.306   8.742  1.00  0.00     0.049 A 
ATOM     36  C   UNL     1      29.120  84.569  10.983  1.00  0.00     0.049 A 
ATOM     37  C   UNL     1      29.007  83.976   9.727  1.00  0.00     0.129 A 
BRANCH  37  38
ATOM     38  O   UNL     1      28.058  83.082   9.330  1.00  0.00    -0.406 OA
BRANCH  38  39
ATOM     39  C   UNL     1      26.748  83.568   9.096  1.00  0.00     0.573 C 
ATOM     40  F   UNL     1      26.249  82.948   8.003  1.00  0.00    -0.132 F 
ATOM     41  F   UNL     1      26.754  84.895   8.857  1.00  0.00    -0.132 F 
ATOM     42  F   UNL     1      25.934  83.298  10.136  1.00  0.00    -0.132 F 
ENDBRANCH  38  39
ENDBRANCH  37  38
ENDBRANCH   7  32
TORSDOF 6
ENDMDL
MODEL 3
REMARK minimizedAffinity 7.15943336
REMARK CNNscore 0.239137471
REMARK CNNaffinity 5.59251642
REMARK SMILES CC(=O)Nc1ccc(-c2cc3c(N4CCN(C(=O)Nc5ccc(OC(F)(F)F)cc5)CC4)ncnc3[nH]2)cn1
REMARK SMILES IDX 13 1 14 2 15 3 16 4 17 5 18 6 19 7 31 8 32 9 12 11 9 12
REMARK SMILES IDX 10 13 37 14 11 15 36 16 35 17 33 18 34 19 8 21 5 22 6 23
REMARK SMILES IDX 39 24 7 25 38 26 4 27 2 28 3 29 1 30 20 32 21 33 30 34 22 35
REMARK SMILES IDX 29 36 23 37 24 38 25 39 26 40 27 41 28 42
REMARK H PARENT 19 10 37 20 4 31
ROOT
ATOM      1  N   UNL     1      36.163 108.122  12.553  1.00  0.00    -0.352 N 
ATOM      2  C   UNL     1      35.638 107.654  13.844  1.00  0.00     0.139 C 
ATOM      3  C   UNL     1      34.511 106.632  13.613  1.00  0.00     0.143 C 
ATOM      4  N   UNL     1      33.449 107.122  12.722  1.00  0.00    -0.321 N 
ATOM      5  C   UNL     1      32.198 106.538  12.561  1.00  0.00     0.321 C 
ATOM      6  O   UNL     1      31.305 107.116  11.947  1.00  0.00    -0.248 OA
ATOM      7  N   UNL     1      32.078 105.289  13.133  1.00  0.00    -0.308 N 
ATOM      8  C   UNL     1      33.709 108.414  12.082  1.00  0.00     0.143 C 
ATOM      9  C   UNL     1      35.153 108.536  11.557  1.00  0.00     0.139 C 
ATOM     10  H   UNL     1      32.932 104.856  13.430  1.00  0.00     0.171 HD
ENDROOT
BRANCH   1  11
ATOM     11  C   UNL     1      37.283 108.955  12.644  1.00  0.00     0.141 A 
ATOM     12  C   UNL     1      40.441 107.512  13.911  1.00  0.00     0.049 A 
ATOM     13  C   UNL     1      39.109 107.296  13.585  1.00  0.00     0.042 A 
ATOM     14  N   UNL     1      40.688 108.843  13.632  1.00  0.00    -0.339 N 
ATOM     15  C   UNL     1      38.545 108.513  13.101  1.00  0.00     0.062 A 
ATOM     16  C   UNL     1      39.560 109.451  13.153  1.00  0.00     0.143 A 
ATOM     17  N   UNL     1      39.489 110.745  12.813  1.00  0.00    -0.218 NA
ATOM     18  N   UNL     1      37.170 110.272  12.321  1.00  0.00    -0.219 NA
ATOM     19  C   UNL     1      38.251 111.071  12.414  1.00  0.00     0.226 A 
ATOM     20  H   UNL     1      41.566 109.329  13.752  1.00  0.00     0.168 HD
BRANCH  12  21
ATOM     21  C   UNL     1      41.451 106.602  14.453  1.00  0.00     0.017 A 
ATOM     22  C   UNL     1      43.411 104.899  15.445  1.00  0.00     0.132 A 
ATOM     23  C   UNL     1      42.153 104.914  16.038  1.00  0.00     0.048 A 
ATOM     24  N   UNL     1      43.705 105.690  14.402  1.00  0.00    -0.238 NA
ATOM     25  C   UNL     1      41.170 105.771  15.537  1.00  0.00     0.016 A 
ATOM     26  C   UNL     1      42.740 106.518  13.936  1.00  0.00     0.123 A 
BRANCH  22  27
ATOM     27  N   UNL     1      44.367 104.026  15.981  1.00  0.00    -0.311 N 
ATOM     28  C   UNL     1      45.069 103.074  15.267  1.00  0.00     0.222 C 
ATOM     29  O   UNL     1      44.986 102.814  14.073  1.00  0.00    -0.275 OA
ATOM     30  C   UNL     1      46.029 102.318  16.152  1.00  0.00     0.114 C 
ATOM     31  H   UNL     1      44.550 104.100  16.970  1.00  0.00     0.171 HD
ENDBRANCH  22  27
ENDBRANCH  12  21
ENDBRANCH   1  11
BRANCH   7  32
ATOM     32  C   UNL     1      30.925 104.478  13.205  1.00  0.00     0.043 A 
ATOM     33  C   UNL     1      29.754 105.075  13.682  1.00  0.00     0.030 A 
ATOM     34  C   UNL     1      30.881 103.138  12.822  1.00  0.00     0.030 A 
ATOM     35  C   UNL     1      28.571 104.337  13.786  1.00  0.00     0.049 A 
ATOM     36  C   UNL     1      29.693 102.398  12.922  1.00  0.00     0.049 A 
ATOM     37  C   UNL     1      28.530 102.993  13.409  1.00  0.00     0.129 A 
BRANCH  37  38
ATOM     38  O   UNL     1      27.315 102.396  13.567  1.00  0.00    -0.406 OA
BRANCH  38  39
ATOM     39  C   UNL     1      26.290 102.726  12.647  1.00  0.00     0.573 C 
ATOM     40  F   UNL     1      25.102 102.682  13.291  1.00  0.00    -0.132 F 
ATOM     41  F   UNL     1      26.246 101.846  11.627  1.00  0.00    -0.132 F 
ATOM     42  F   UNL     1      26.454 103.974  12.161  1.00  0.00    -0.132 F 
ENDBRANCH  38  39
ENDBRANCH  37  38
ENDBRANCH   7  32
TORSDOF 6
ENDMDL
MODEL 4
REMARK minimizedAffinity -9.0671711
REMARK CNNscore 0.225591809
REMARK CNNaffinity 7.5868969
REMARK SMILES CC(=O)Nc1ccc(-c2cc3c(N4CCN(C(=O)Nc5ccc(OC(F)(F)F)cc5)CC4)ncnc3[nH]2)cn1
REMARK SMILES IDX 13 1 14 2 15 3 16 4 17 5 18 6 19 7 31 8 32 9 12 11 9 12
REMARK SMILES IDX 10 13 37 14 11 15 36 16 35 17 33 18 34 19 8 21 5 22 6 23
REMARK SMILES IDX 39 24 7 25 38 26 4 27 2 28 3 29 1 30 20 32 21 33 30 34 22 35
REMARK SMILES IDX 29 36 23 37 24 38 25 39 26 40 27 41 28 42
REMARK H PARENT 19 10 37 20 4 31
ROOT
ATOM      1  N   UNL     1      35.799  95.471  10.917  1.00  0.00    -0.352 N 
ATOM      2  C   UNL     1      36.134  96.888  10.711  1.00  0.00     0.139 C 
ATOM      3  C   UNL     1      34.856  97.743  10.782  1.00  0.00     0.143 C 
ATOM      4  N   UNL     1      33.792  97.282   9.877  1.00  0.00    -0.321 N 
ATOM      5  C   UNL     1      32.658  98.008   9.529  1.00  0.00     0.321 C 
ATOM      6  O   UNL     1      31.920  97.630   8.623  1.00  0.00    -0.248 OA
ATOM      7  N   UNL     1      32.458  99.142  10.287  1.00  0.00    -0.308 N 
ATOM      8  C   UNL     1      34.054  96.015   9.190  1.00  0.00     0.143 C 
ATOM      9  C   UNL     1      34.669  94.951  10.121  1.00  0.00     0.139 C 
ATOM     10  H   UNL     1      33.021  99.227  11.112  1.00  0.00     0.171 HD
ENDROOT
BRANCH   1  11
ATOM     11  C   UNL     1      36.904  94.616  11.007  1.00  0.00     0.141 A 
ATOM     12  C   UNL     1      36.319  90.971  10.832  1.00  0.00     0.049 A 
ATOM     13  C   UNL     1      35.764  92.244  10.803  1.00  0.00     0.042 A 
ATOM     14  N   UNL     1      37.679  91.156  10.988  1.00  0.00    -0.339 N 
ATOM     15  C   UNL     1      36.805  93.209  10.941  1.00  0.00     0.062 A 
ATOM     16  C   UNL     1      37.980  92.488  11.060  1.00  0.00     0.143 A 
ATOM     17  N   UNL     1      39.216  92.973  11.230  1.00  0.00    -0.218 NA
ATOM     18  N   UNL     1      38.144  95.140  11.212  1.00  0.00    -0.219 NA
ATOM     19  C   UNL     1      39.204  94.312  11.302  1.00  0.00     0.226 A 
ATOM     20  H   UNL     1      38.381  90.430  11.044  1.00  0.00     0.168 HD
BRANCH  12  21
ATOM     21  C   UNL     1      35.690  89.653  10.740  1.00  0.00     0.017 A 
ATOM     22  C   UNL     1      34.549  87.124  10.573  1.00  0.00     0.132 A 
ATOM     23  C   UNL     1      33.727  88.246  10.588  1.00  0.00     0.048 A 
ATOM     24  N   UNL     1      35.884  87.230  10.639  1.00  0.00    -0.238 NA
ATOM     25  C   UNL     1      34.304  89.516  10.672  1.00  0.00     0.016 A 
ATOM     26  C   UNL     1      36.423  88.471  10.726  1.00  0.00     0.123 A 
BRANCH  22  27
ATOM     27  N   UNL     1      33.928  85.870  10.491  1.00  0.00    -0.311 N 
ATOM     28  C   UNL     1      33.979  84.889  11.462  1.00  0.00     0.222 C 
ATOM     29  O   UNL     1      34.563  84.922  12.538  1.00  0.00    -0.275 OA
ATOM     30  C   UNL     1      33.187  83.670  11.056  1.00  0.00     0.114 C 
ATOM     31  H   UNL     1      33.407  85.673   9.651  1.00  0.00     0.171 HD
ENDBRANCH  22  27
ENDBRANCH  12  21
ENDBRANCH   1  11
BRANCH   7  32
ATOM     32  C   UNL     1      31.450 100.118  10.132  1.00  0.00     0.043 A 
ATOM     33  C   UNL     1      31.201 100.956  11.224  1.00  0.00     0.030 A 
ATOM     34  C   UNL     1      30.706 100.303   8.968  1.00  0.00     0.030 A 
ATOM     35  C   UNL     1      30.216 101.946  11.150  1.00  0.00     0.049 A 
ATOM     36  C   UNL     1      29.720 101.298   8.892  1.00  0.00     0.049 A 
ATOM     37  C   UNL     1      29.466 102.124   9.985  1.00  0.00     0.129 A 
BRANCH  37  38
ATOM     38  O   UNL     1      28.538 103.121  10.055  1.00  0.00    -0.406 OA
BRANCH  38  39
ATOM     39  C   UNL     1      27.993 103.429  11.324  1.00  0.00     0.573 C 
ATOM     40  F   UNL     1      26.937 102.615  11.548  1.00  0.00    -0.132 F 
ATOM     41  F   UNL     1      27.555 104.704  11.374  1.00  0.00    -0.132 F 
ATOM     42  F   UNL     1      28.894 103.222  12.306  1.00  0.00    -0.132 F 
ENDBRANCH  38  39
ENDBRANCH  37  38
ENDBRANCH   7  32
TORSDOF 6
ENDMDL
MODEL 5
REMARK minimizedAffinity 6.32435894
REMARK CNNscore 0.176829219
REMARK CNNaffinity 7.35538483
REMARK SMILES CC(=O)Nc1ccc(-c2cc3c(N4CCN(C(=O)Nc5ccc(OC(F)(F)F)cc5)CC4)ncnc3[nH]2)cn1
REMARK SMILES IDX 13 1 14 2 15 3 16 4 17 5 18 6 19 7 31 8 32 9 12 11 9 12
REMARK SMILES IDX 10 13 37 14 11 15 36 16 35 17 33 18 34 19 8 21 5 22 6 23
REMARK SMILES IDX 39 24 7 25 38 26 4 27 2 28 3 29 1 30 20 32 21 33 30 34 22 35
REMARK SMILES IDX 29 36 23 37 24 38 25 39 26 40 27 41 28 42
REMARK H PARENT 19 10 37 20 4 31
ROOT
ATOM      1  N   UNL     1      33.451  99.331   9.321  1.00  0.00    -0.352 N 
ATOM      2  C   UNL     1      33.611 100.792   9.329  1.00  0.00     0.139 C 
ATOM      3  C   UNL     1      32.803 101.401  10.489  1.00  0.00     0.143 C 
ATOM      4  N   UNL     1      31.390 100.993  10.496  1.00  0.00    -0.321 N 
ATOM      5  C   UNL     1      30.381 101.593  11.241  1.00  0.00     0.321 C 
ATOM      6  O   UNL     1      29.201 101.317  11.043  1.00  0.00    -0.248 OA
ATOM      7  N   UNL     1      30.832 102.485  12.190  1.00  0.00    -0.308 N 
ATOM      8  C   UNL     1      31.025  99.967   9.516  1.00  0.00     0.143 C 
ATOM      9  C   UNL     1      32.064  98.832   9.431  1.00  0.00     0.139 C 
ATOM     10  H   UNL     1      31.817 102.471  12.377  1.00  0.00     0.171 HD
ENDROOT
BRANCH   1  11
ATOM     11  C   UNL     1      34.250  98.660   8.389  1.00  0.00     0.141 A 
ATOM     12  C   UNL     1      36.142  95.691   9.516  1.00  0.00     0.049 A 
ATOM     13  C   UNL     1      35.255  96.706   9.852  1.00  0.00     0.042 A 
ATOM     14  N   UNL     1      36.433  95.872   8.178  1.00  0.00    -0.339 N 
ATOM     15  C   UNL     1      35.008  97.509   8.700  1.00  0.00     0.062 A 
ATOM     16  C   UNL     1      35.766  96.958   7.682  1.00  0.00     0.143 A 
ATOM     17  N   UNL     1      35.866  97.391   6.419  1.00  0.00    -0.218 NA
ATOM     18  N   UNL     1      34.356  99.144   7.121  1.00  0.00    -0.219 NA
ATOM     19  C   UNL     1      35.130  98.496   6.228  1.00  0.00     0.226 A 
ATOM     20  H   UNL     1      37.048  95.301   7.615  1.00  0.00     0.168 HD
BRANCH  12  21
ATOM     21  C   UNL     1      36.717  94.619  10.328  1.00  0.00     0.017 A 
ATOM     22  C   UNL     1      37.776  92.541  11.843  1.00  0.00     0.132 A 
ATOM     23  C   UNL     1      38.343  93.809  11.929  1.00  0.00     0.048 A 
ATOM     24  N   UNL     1      36.727  92.294  11.043  1.00  0.00    -0.238 NA
ATOM     25  C   UNL     1      37.808  94.851  11.166  1.00  0.00     0.016 A 
ATOM     26  C   UNL     1      36.229  93.317  10.308  1.00  0.00     0.123 A 
BRANCH  22  27
ATOM     27  N   UNL     1      38.344  91.526  12.622  1.00  0.00    -0.311 N 
ATOM     28  C   UNL     1      39.309  90.635  12.193  1.00  0.00     0.222 C 
ATOM     29  O   UNL     1      39.827  90.559  11.086  1.00  0.00    -0.275 OA
ATOM     30  C   UNL     1      39.710  89.684  13.294  1.00  0.00     0.114 C 
ATOM     31  H   UNL     1      38.016  91.441  13.572  1.00  0.00     0.171 HD
ENDBRANCH  22  27
ENDBRANCH  12  21
ENDBRANCH   1  11
BRANCH   7  32
ATOM     32  C   UNL     1      30.061 103.302  13.045  1.00  0.00     0.043 A 
ATOM     33  C   UNL     1      30.345 104.671  13.046  1.00  0.00     0.030 A 
ATOM     34  C   UNL     1      29.037 102.834  13.867  1.00  0.00     0.030 A 
ATOM     35  C   UNL     1      29.627 105.546  13.868  1.00  0.00     0.049 A 
ATOM     36  C   UNL     1      28.313 103.712  14.689  1.00  0.00     0.049 A 
ATOM     37  C   UNL     1      28.606 105.074  14.696  1.00  0.00     0.129 A 
BRANCH  37  38
ATOM     38  O   UNL     1      27.994 106.035  15.445  1.00  0.00    -0.406 OA
BRANCH  38  39
ATOM     39  C   UNL     1      28.808 107.029  16.040  1.00  0.00     0.573 C 
ATOM     40  F   UNL     1      29.096 106.649  17.305  1.00  0.00    -0.132 F 
ATOM     41  F   UNL     1      28.171 108.216  16.095  1.00  0.00    -0.132 F 
ATOM     42  F   UNL     1      29.972 107.170  15.373  1.00  0.00    -0.132 F 
ENDBRANCH  38  39
ENDBRANCH  37  38
ENDBRANCH   7  32
TORSDOF 6
ENDMDL
MODEL 6
REMARK minimizedAffinity 20.7131691
REMARK CNNscore 0.1602851
REMARK CNNaffinity 6.0404067
REMARK SMILES CC(=O)Nc1ccc(-c2cc3c(N4CCN(C(=O)Nc5ccc(OC(F)(F)F)cc5)CC4)ncnc3[nH]2)cn1
REMARK SMILES IDX 13 1 14 2 15 3 16 4 17 5 18 6 19 7 31 8 32 9 12 11 9 12
REMARK SMILES IDX 10 13 37 14 11 15 36 16 35 17 33 18 34 19 8 21 5 22 6 23
REMARK SMILES IDX 39 24 7 25 38 26 4 27 2 28 3 29 1 30 20 32 21 33 30 34 22 35
REMARK SMILES IDX 29 36 23 37 24 38 25 39 26 40 27 41 28 42
REMARK H PARENT 19 10 37 20 4 31
ROOT
ATOM      1  N   UNL     1      31.631  99.507  10.589  1.00  0.00    -0.352 N 
ATOM      2  C   UNL     1      31.215  98.241   9.967  1.00  0.00     0.139 C 
ATOM      3  C   UNL     1      32.209  97.125  10.335  1.00  0.00     0.143 C 
ATOM      4  N   UNL     1      33.608  97.464  10.034  1.00  0.00    -0.321 N 
ATOM      5  C   UNL     1      34.667  96.563  10.000  1.00  0.00     0.321 C 
ATOM      6  O   UNL     1      35.762  96.893   9.553  1.00  0.00    -0.248 OA
ATOM      7  N   UNL     1      34.366  95.318  10.508  1.00  0.00    -0.308 N 
ATOM      8  C   UNL     1      33.842  98.842   9.593  1.00  0.00     0.143 C 
ATOM      9  C   UNL     1      33.052  99.872  10.423  1.00  0.00     0.139 C 
ATOM     10  H   UNL     1      33.504  95.243  11.013  1.00  0.00     0.171 HD
ENDROOT
BRANCH   1  11
ATOM     11  C   UNL     1      30.724 100.562  10.431  1.00  0.00     0.141 A 
ATOM     12  C   UNL     1      31.893 103.997  11.134  1.00  0.00     0.049 A 
ATOM     13  C   UNL     1      32.211 102.646  11.076  1.00  0.00     0.042 A 
ATOM     14  N   UNL     1      30.567 104.090  10.758  1.00  0.00    -0.339 N 
ATOM     15  C   UNL     1      31.060 101.915  10.659  1.00  0.00     0.062 A 
ATOM     16  C   UNL     1      30.058 102.852  10.478  1.00  0.00     0.143 A 
ATOM     17  N   UNL     1      28.792 102.625  10.106  1.00  0.00    -0.218 NA
ATOM     18  N   UNL     1      29.436 100.295  10.083  1.00  0.00    -0.219 NA
ATOM     19  C   UNL     1      28.566 101.314   9.936  1.00  0.00     0.226 A 
ATOM     20  H   UNL     1      30.020 104.937  10.690  1.00  0.00     0.168 HD
BRANCH  12  21
ATOM     21  C   UNL     1      32.707 105.154  11.510  1.00  0.00     0.017 A 
ATOM     22  C   UNL     1      34.288 107.341  12.176  1.00  0.00     0.132 A 
ATOM     23  C   UNL     1      33.111 107.108  12.879  1.00  0.00     0.048 A 
ATOM     24  N   UNL     1      34.682 106.534  11.180  1.00  0.00    -0.238 NA
ATOM     25  C   UNL     1      32.318 106.008  12.542  1.00  0.00     0.016 A 
ATOM     26  C   UNL     1      33.896 105.477  10.865  1.00  0.00     0.123 A 
BRANCH  22  27
ATOM     27  N   UNL     1      35.051 108.456  12.546  1.00  0.00    -0.311 N 
ATOM     28  C   UNL     1      35.637 109.350  11.670  1.00  0.00     0.222 C 
ATOM     29  O   UNL     1      35.610 109.332  10.446  1.00  0.00    -0.275 OA
ATOM     30  C   UNL     1      36.372 110.442  12.406  1.00  0.00     0.114 C 
ATOM     31  H   UNL     1      35.182 108.613  13.534  1.00  0.00     0.171 HD
ENDBRANCH  22  27
ENDBRANCH  12  21
ENDBRANCH   1  11
BRANCH   7  32
ATOM     32  C   UNL     1      35.196  94.176  10.545  1.00  0.00     0.043 A 
ATOM     33  C   UNL     1      35.233  93.378   9.397  1.00  0.00     0.030 A 
ATOM     34  C   UNL     1      35.981  93.809  11.637  1.00  0.00     0.030 A 
ATOM     35  C   UNL     1      36.029  92.228   9.356  1.00  0.00     0.049 A 
ATOM     36  C   UNL     1      36.782  92.657  11.595  1.00  0.00     0.049 A 
ATOM     37  C   UNL     1      36.808  91.858  10.455  1.00  0.00     0.129 A 
BRANCH  37  38
ATOM     38  O   UNL     1      37.530  90.714  10.278  1.00  0.00    -0.406 OA
BRANCH  38  39
ATOM     39  C   UNL     1      38.715  90.556  11.036  1.00  0.00     0.573 C 
ATOM     40  F   UNL     1      39.303  89.393  10.677  1.00  0.00    -0.132 F 
ATOM     41  F   UNL     1      38.448  90.498  12.356  1.00  0.00    -0.132 F 
ATOM     42  F   UNL     1      39.587  91.556  10.794  1.00  0.00    -0.132 F 
ENDBRANCH  38  39
ENDBRANCH  37  38
ENDBRANCH   7  32
TORSDOF 6
ENDMDL
MODEL 7
REMARK minimizedAffinity -10.5603466
REMARK CNNscore 0.119417615
REMARK CNNaffinity 6.72750998
REMARK SMILES CC(=O)Nc1ccc(-c2cc3c(N4CCN(C(=O)Nc5ccc(OC(F)(F)F)cc5)CC4)ncnc3[nH]2)cn1
REMARK SMILES IDX 13 1 14 2 15 3 16 4 17 5 18 6 19 7 31 8 32 9 12 11 9 12
REMARK SMILES IDX 10 13 37 14 11 15 36 16 35 17 33 18 34 19 8 21 5 22 6 23
REMARK SMILES IDX 39 24 7 25 38 26 4 27 2 28 3 29 1 30 20 32 21 33 30 34 22 35
REMARK SMILES IDX 29 36 23 37 24 38 25 39 26 40 27 41 28 42
REMARK H PARENT 19 10 37 20 4 31
ROOT
ATOM      1  N   UNL     1      37.887  91.761  11.091  1.00  0.00    -0.352 N 
ATOM      2  C   UNL     1      36.448  91.955  11.320  1.00  0.00     0.139 C 
ATOM      3  C   UNL     1      35.962  93.209  10.572  1.00  0.00     0.143 C 
ATOM      4  N   UNL     1      36.744  94.415  10.880  1.00  0.00    -0.321 N 
ATOM      5  C   UNL     1      36.370  95.719  10.576  1.00  0.00     0.321 C 
ATOM      6  O   UNL     1      36.985  96.676  11.038  1.00  0.00    -0.248 OA
ATOM      7  N   UNL     1      35.286  95.814   9.730  1.00  0.00    -0.308 N 
ATOM      8  C   UNL     1      37.936  94.200  11.706  1.00  0.00     0.143 C 
ATOM      9  C   UNL     1      38.737  92.955  11.277  1.00  0.00     0.139 C 
ATOM     10  H   UNL     1      35.003  94.965   9.278  1.00  0.00     0.171 HD
ENDROOT
BRANCH   1  11
ATOM     11  C   UNL     1      38.409  90.573  11.615  1.00  0.00     0.141 A 
ATOM     12  C   UNL     1      36.294  87.543  11.533  1.00  0.00     0.049 A 
ATOM     13  C   UNL     1      36.413  88.891  11.219  1.00  0.00     0.042 A 
ATOM     14  N   UNL     1      37.490  87.186  12.125  1.00  0.00    -0.339 N 
ATOM     15  C   UNL     1      37.699  89.352  11.628  1.00  0.00     0.062 A 
ATOM     16  C   UNL     1      38.334  88.260  12.193  1.00  0.00     0.143 A 
ATOM     17  N   UNL     1      39.558  88.223  12.734  1.00  0.00    -0.218 NA
ATOM     18  N   UNL     1      39.644  90.576  12.187  1.00  0.00    -0.219 NA
ATOM     19  C   UNL     1      40.140  89.430  12.694  1.00  0.00     0.226 A 
ATOM     20  H   UNL     1      37.738  86.269  12.472  1.00  0.00     0.168 HD
BRANCH  12  21
ATOM     21  C   UNL     1      35.183  86.612  11.334  1.00  0.00     0.017 A 
ATOM     22  C   UNL     1      33.096  84.806  10.999  1.00  0.00     0.132 A 
ATOM     23  C   UNL     1      33.047  86.037  10.352  1.00  0.00     0.048 A 
ATOM     24  N   UNL     1      34.129  84.466  11.784  1.00  0.00    -0.238 NA
ATOM     25  C   UNL     1      34.098  86.942  10.523  1.00  0.00     0.016 A 
ATOM     26  C   UNL     1      35.134  85.361  11.941  1.00  0.00     0.123 A 
BRANCH  22  27
ATOM     27  N   UNL     1      32.021  83.930  10.801  1.00  0.00    -0.311 N 
ATOM     28  C   UNL     1      30.759  84.079  11.345  1.00  0.00     0.222 C 
ATOM     29  O   UNL     1      30.357  84.969  12.085  1.00  0.00    -0.275 OA
ATOM     30  C   UNL     1      29.838  82.964  10.916  1.00  0.00     0.114 C 
ATOM     31  H   UNL     1      32.188  83.125  10.217  1.00  0.00     0.171 HD
ENDBRANCH  22  27
ENDBRANCH  12  21
ENDBRANCH   1  11
BRANCH   7  32
ATOM     32  C   UNL     1      34.626  96.985   9.299  1.00  0.00     0.043 A 
ATOM     33  C   UNL     1      33.800  97.629  10.225  1.00  0.00     0.030 A 
ATOM     34  C   UNL     1      34.756  97.537   8.025  1.00  0.00     0.030 A 
ATOM     35  C   UNL     1      33.110  98.794   9.873  1.00  0.00     0.049 A 
ATOM     36  C   UNL     1      34.066  98.708   7.673  1.00  0.00     0.049 A 
ATOM     37  C   UNL     1      33.236  99.341   8.594  1.00  0.00     0.129 A 
BRANCH  37  38
ATOM     38  O   UNL     1      32.504 100.473   8.388  1.00  0.00    -0.406 OA
BRANCH  38  39
ATOM     39  C   UNL     1      31.575 100.852   9.387  1.00  0.00     0.573 C 
ATOM     40  F   UNL     1      32.217 101.603  10.309  1.00  0.00    -0.132 F 
ATOM     41  F   UNL     1      31.061  99.773  10.012  1.00  0.00    -0.132 F 
ATOM     42  F   UNL     1      30.575 101.594   8.869  1.00  0.00    -0.132 F 
ENDBRANCH  38  39
ENDBRANCH  37  38
ENDBRANCH   7  32
TORSDOF 6
ENDMDL
MODEL 8
REMARK minimizedAffinity -8.23394489
REMARK CNNscore 0.116234444
REMARK CNNaffinity 7.09927559
REMARK SMILES CC(=O)Nc1ccc(-c2cc3c(N4CCN(C(=O)Nc5ccc(OC(F)(F)F)cc5)CC4)ncnc3[nH]2)cn1
REMARK SMILES IDX 13 1 14 2 15 3 16 4 17 5 18 6 19 7 31 8 32 9 12 11 9 12
REMARK SMILES IDX 10 13 37 14 11 15 36 16 35 17 33 18 34 19 8 21 5 22 6 23
REMARK SMILES IDX 39 24 7 25 38 26 4 27 2 28 3 29 1 30 20 32 21 33 30 34 22 35
REMARK SMILES IDX 29 36 23 37 24 38 25 39 26 40 27 41 28 42
REMARK H PARENT 19 10 37 20 4 31
ROOT
ATOM      1  N   UNL     1      36.160  94.791  10.975  1.00  0.00    -0.352 N 
ATOM      2  C   UNL     1      36.567  96.133  10.533  1.00  0.00     0.139 C 
ATOM      3  C   UNL     1      35.357  97.083  10.562  1.00  0.00     0.143 C 
ATOM      4  N   UNL     1      34.196  96.577   9.815  1.00  0.00    -0.321 N 
ATOM      5  C   UNL     1      33.087  97.328   9.442  1.00  0.00     0.321 C 
ATOM      6  O   UNL     1      32.256  96.878   8.658  1.00  0.00    -0.248 OA
ATOM      7  N   UNL     1      33.023  98.573  10.030  1.00  0.00    -0.308 N 
ATOM      8  C   UNL     1      34.319  95.206   9.313  1.00  0.00     0.143 C 
ATOM      9  C   UNL     1      34.938  94.248  10.349  1.00  0.00     0.139 C 
ATOM     10  H   UNL     1      33.655  98.736  10.791  1.00  0.00     0.171 HD
ENDROOT
BRANCH   1  11
ATOM     11  C   UNL     1      37.211  93.878  11.116  1.00  0.00     0.141 A 
ATOM     12  C   UNL     1      36.442  90.270  10.882  1.00  0.00     0.049 A 
ATOM     13  C   UNL     1      35.958  91.571  10.833  1.00  0.00     0.042 A 
ATOM     14  N   UNL     1      37.799  90.380  11.110  1.00  0.00    -0.339 N 
ATOM     15  C   UNL     1      37.040  92.478  11.034  1.00  0.00     0.062 A 
ATOM     16  C   UNL     1      38.167  91.694  11.208  1.00  0.00     0.143 A 
ATOM     17  N   UNL     1      39.417  92.111  11.446  1.00  0.00    -0.218 NA
ATOM     18  N   UNL     1      38.465  94.332  11.389  1.00  0.00    -0.219 NA
ATOM     19  C   UNL     1      39.473  93.448  11.528  1.00  0.00     0.226 A 
ATOM     20  H   UNL     1      38.458  89.618  11.197  1.00  0.00     0.168 HD
BRANCH  12  21
ATOM     21  C   UNL     1      35.748  88.989  10.746  1.00  0.00     0.017 A 
ATOM     22  C   UNL     1      34.380  86.583  10.477  1.00  0.00     0.132 A 
ATOM     23  C   UNL     1      35.765  86.572  10.614  1.00  0.00     0.048 A 
ATOM     24  N   UNL     1      33.685  87.731  10.470  1.00  0.00    -0.238 NA
ATOM     25  C   UNL     1      36.449  87.783  10.749  1.00  0.00     0.016 A 
ATOM     26  C   UNL     1      34.369  88.893  10.596  1.00  0.00     0.123 A 
BRANCH  22  27
ATOM     27  N   UNL     1      33.735  85.347  10.341  1.00  0.00    -0.311 N 
ATOM     28  C   UNL     1      32.497  85.031  10.866  1.00  0.00     0.222 C 
ATOM     29  O   UNL     1      31.756  85.743  11.534  1.00  0.00    -0.275 OA
ATOM     30  C   UNL     1      32.095  83.619  10.518  1.00  0.00     0.114 C 
ATOM     31  H   UNL     1      34.221  84.633   9.821  1.00  0.00     0.171 HD
ENDBRANCH  22  27
ENDBRANCH  12  21
ENDBRANCH   1  11
BRANCH   7  32
ATOM     32  C   UNL     1      32.070  99.589   9.800  1.00  0.00     0.043 A 
ATOM     33  C   UNL     1      31.709 100.384  10.893  1.00  0.00     0.030 A 
ATOM     34  C   UNL     1      31.486  99.854   8.562  1.00  0.00     0.030 A 
ATOM     35  C   UNL     1      30.769 101.409  10.747  1.00  0.00     0.049 A 
ATOM     36  C   UNL     1      30.546 100.886   8.414  1.00  0.00     0.049 A 
ATOM     37  C   UNL     1      30.180 101.668   9.507  1.00  0.00     0.129 A 
BRANCH  37  38
ATOM     38  O   UNL     1      29.279 102.692   9.511  1.00  0.00    -0.406 OA
BRANCH  38  39
ATOM     39  C   UNL     1      27.955 102.407   9.925  1.00  0.00     0.573 C 
ATOM     40  F   UNL     1      27.304 103.576  10.119  1.00  0.00    -0.132 F 
ATOM     41  F   UNL     1      27.941 101.723  11.086  1.00  0.00    -0.132 F 
ATOM     42  F   UNL     1      27.288 101.711   8.981  1.00  0.00    -0.132 F 
ENDBRANCH  38  39
ENDBRANCH  37  38
ENDBRANCH   7  32
TORSDOF 6
ENDMDL
MODEL 9
REMARK minimizedAffinity -8.44473076
REMARK CNNscore 0.109345503
REMARK CNNaffinity 7.27573586
REMARK SMILES CC(=O)Nc1ccc(-c2cc3c(N4CCN(C(=O)Nc5ccc(OC(F)(F)F)cc5)CC4)ncnc3[nH]2)cn1
REMARK SMILES IDX 13 1 14 2 15 3 16 4 17 5 18 6 19 7 31 8 32 9 12 11 9 12
REMARK SMILES IDX 10 13 37 14 11 15 36 16 35 17 33 18 34 19 8 21 5 22 6 23
REMARK SMILES IDX 39 24 7 25 38 26 4 27 2 28 3 29 1 30 20 32 21 33 30 34 22 35
REMARK SMILES IDX 29 36 23 37 24 38 25 39 26 40 27 41 28 42
REMARK H PARENT 19 10 37 20 4 31
ROOT
ATOM      1  N   UNL     1      34.649  97.175   9.119  1.00  0.00    -0.352 N 
ATOM      2  C   UNL     1      35.016  96.046   8.251  1.00  0.00     0.139 C 
ATOM      3  C   UNL     1      35.075  94.748   9.078  1.00  0.00     0.143 C 
ATOM      4  N   UNL     1      35.940  94.847  10.263  1.00  0.00    -0.321 N 
ATOM      5  C   UNL     1      36.395  93.774  11.021  1.00  0.00     0.321 C 
ATOM      6  O   UNL     1      37.265  93.928  11.874  1.00  0.00    -0.248 OA
ATOM      7  N   UNL     1      35.783  92.574  10.728  1.00  0.00    -0.308 N 
ATOM      8  C   UNL     1      36.465  96.184  10.550  1.00  0.00     0.143 C 
ATOM      9  C   UNL     1      35.401  97.288  10.385  1.00  0.00     0.139 C 
ATOM     10  H   UNL     1      34.962  92.625  10.155  1.00  0.00     0.171 HD
ENDROOT
BRANCH   1  11
ATOM     11  C   UNL     1      34.435  98.383   8.446  1.00  0.00     0.141 A 
ATOM     12  C   UNL     1      31.757 100.618   9.668  1.00  0.00     0.049 A 
ATOM     13  C   UNL     1      32.445  99.424   9.835  1.00  0.00     0.042 A 
ATOM     14  N   UNL     1      32.332 101.236   8.574  1.00  0.00    -0.339 N 
ATOM     15  C   UNL     1      33.450  99.321   8.828  1.00  0.00     0.062 A 
ATOM     16  C   UNL     1      33.340 100.468   8.062  1.00  0.00     0.143 A 
ATOM     17  N   UNL     1      34.068 100.799   6.987  1.00  0.00    -0.218 NA
ATOM     18  N   UNL     1      35.170  98.676   7.339  1.00  0.00    -0.219 NA
ATOM     19  C   UNL     1      34.957  99.840   6.692  1.00  0.00     0.226 A 
ATOM     20  H   UNL     1      32.068 102.130   8.182  1.00  0.00     0.168 HD
BRANCH  12  21
ATOM     21  C   UNL     1      30.641 101.190  10.422  1.00  0.00     0.017 A 
ATOM     22  C   UNL     1      28.558 102.288  11.900  1.00  0.00     0.132 A 
ATOM     23  C   UNL     1      28.339 101.925  10.575  1.00  0.00     0.048 A 
ATOM     24  N   UNL     1      29.753 102.123  12.486  1.00  0.00    -0.238 NA
ATOM     25  C   UNL     1      29.389 101.373   9.835  1.00  0.00     0.016 A 
ATOM     26  C   UNL     1      30.758 101.592  11.748  1.00  0.00     0.123 A 
BRANCH  22  27
ATOM     27  N   UNL     1      27.479 102.840  12.603  1.00  0.00    -0.311 N 
ATOM     28  C   UNL     1      26.849 104.030  12.295  1.00  0.00     0.222 C 
ATOM     29  O   UNL     1      27.109 104.807  11.384  1.00  0.00    -0.275 OA
ATOM     30  C   UNL     1      25.716 104.317  13.249  1.00  0.00     0.114 C 
ATOM     31  H   UNL     1      27.142 102.324  13.402  1.00  0.00     0.171 HD
ENDBRANCH  22  27
ENDBRANCH  12  21
ENDBRANCH   1  11
BRANCH   7  32
ATOM     32  C   UNL     1      36.074  91.302  11.266  1.00  0.00     0.043 A 
ATOM     33  C   UNL     1      37.404  90.875  11.209  1.00  0.00     0.030 A 
ATOM     34  C   UNL     1      35.129  90.462  11.855  1.00  0.00     0.030 A 
ATOM     35  C   UNL     1      37.772  89.625  11.718  1.00  0.00     0.049 A 
ATOM     36  C   UNL     1      35.498  89.210  12.369  1.00  0.00     0.049 A 
ATOM     37  C   UNL     1      36.822  88.782  12.301  1.00  0.00     0.129 A 
BRANCH  37  38
ATOM     38  O   UNL     1      37.319  87.594  12.750  1.00  0.00    -0.406 OA
BRANCH  38  39
ATOM     39  C   UNL     1      36.492  86.805  13.586  1.00  0.00     0.573 C 
ATOM     40  F   UNL     1      36.132  87.547  14.658  1.00  0.00    -0.132 F 
ATOM     41  F   UNL     1      37.147  85.715  14.035  1.00  0.00    -0.132 F 
ATOM     42  F   UNL     1      35.368  86.426  12.945  1.00  0.00    -0.132 F 
ENDBRANCH  38  39
ENDBRANCH  37  38
ENDBRANCH   7  32
TORSDOF 6
ENDMDL
