MODEL 1
REMARK minimizedAffinity -9.67382717
REMARK CNNscore 0.953275919
REMARK CNNaffinity 8.30729198
REMARK SMILES C=CC(=O)N1CC(CCn2c(=O)ccc3cnc(Nc4ccc(-n5ccnc5)cc4)nc32)C1
REMARK SMILES IDX 10 1 11 2 12 3 13 4 14 5 15 6 16 7 17 8 18 9 31 10 32 11
REMARK SMILES IDX 9 12 8 13 7 14 3 15 4 16 5 17 6 18 33 19 2 20 1 21 19 22
REMARK SMILES IDX 20 24 21 25 30 26 22 27 29 28 23 29 24 30 25 31 28 32 26 33
REMARK SMILES IDX 27 34
REMARK H PARENT 19 23
ROOT
ATOM      1  N   UNL     1       0.301  14.973   4.153  1.00  0.00    -0.293 N 
ATOM      2  C   UNL     1       1.097  13.941   4.624  1.00  0.00     0.252 A 
ATOM      3  O   UNL     1       2.237  14.085   5.059  1.00  0.00    -0.269 OA
ATOM      4  C   UNL     1       0.517  12.574   4.607  1.00  0.00     0.072 A 
ATOM      5  C   UNL     1      -0.727  12.344   4.173  1.00  0.00     0.019 A 
ATOM      6  C   UNL     1      -1.526  13.464   3.706  1.00  0.00     0.036 A 
ATOM      7  C   UNL     1      -2.816  13.333   3.249  1.00  0.00     0.127 A 
ATOM      8  N   UNL     1      -3.561  14.367   2.815  1.00  0.00    -0.221 NA
ATOM      9  C   UNL     1      -3.003  15.583   2.837  1.00  0.00     0.229 A 
ATOM     10  N   UNL     1      -1.751  15.808   3.264  1.00  0.00    -0.194 NA
ATOM     11  C   UNL     1      -1.026  14.752   3.694  1.00  0.00     0.148 A 
ENDROOT
BRANCH   1  12
ATOM     12  C   UNL     1       0.830  16.336   4.140  1.00  0.00     0.128 C 
BRANCH  12  13
ATOM     13  C   UNL     1       2.325  16.422   4.465  1.00  0.00     0.029 C 
BRANCH  13  14
ATOM     14  C   UNL     1       2.600  17.206   5.750  1.00  0.00     0.030 C 
ATOM     15  C   UNL     1       1.111  15.473   8.121  1.00  0.00     0.245 C 
ATOM     16  O   UNL     1       1.571  14.359   8.360  1.00  0.00    -0.270 OA
ATOM     17  N   UNL     1       1.826  16.476   7.528  1.00  0.00    -0.338 N 
ATOM     18  C   UNL     1       3.138  16.346   6.908  1.00  0.00     0.125 C 
ATOM     19  C   UNL     1       1.391  17.548   6.642  1.00  0.00     0.125 C 
BRANCH  15  20
ATOM     20  C   UNL     1      -0.309  15.753   8.459  1.00  0.00     0.063 C 
ATOM     21  C   UNL     1      -1.286  15.903   7.557  1.00  0.00     0.014 C 
ENDBRANCH  15  20
ENDBRANCH  13  14
ENDBRANCH  12  13
ENDBRANCH   1  12
BRANCH   9  22
ATOM     22  N   UNL     1      -3.688  16.719   2.416  1.00  0.00    -0.324 N 
ATOM     23  H   UNL     1      -4.470  16.436   1.843  1.00  0.00     0.170 HD
BRANCH  22  24
ATOM     24  C   UNL     1      -3.518  18.091   2.619  1.00  0.00     0.041 A 
ATOM     25  C   UNL     1      -2.427  18.527   3.384  1.00  0.00     0.028 A 
ATOM     26  C   UNL     1      -4.371  19.070   2.107  1.00  0.00     0.028 A 
ATOM     27  C   UNL     1      -2.195  19.888   3.632  1.00  0.00     0.029 A 
ATOM     28  C   UNL     1      -4.150  20.436   2.344  1.00  0.00     0.029 A 
ATOM     29  C   UNL     1      -3.057  20.858   3.111  1.00  0.00     0.047 A 
BRANCH  29  30
ATOM     30  N   UNL     1      -2.829  22.243   3.355  1.00  0.00    -0.306 N 
ATOM     31  C   UNL     1      -3.314  23.314   2.631  1.00  0.00     0.113 A 
ATOM     32  C   UNL     1      -2.076  22.804   4.366  1.00  0.00     0.204 A 
ATOM     33  C   UNL     1      -2.829  24.445   3.244  1.00  0.00     0.131 A 
ATOM     34  N   UNL     1      -2.060  24.120   4.322  1.00  0.00    -0.245 NA
ENDBRANCH  29  30
ENDBRANCH  22  24
ENDBRANCH   9  22
TORSDOF 7
ENDMDL
MODEL 2
REMARK minimizedAffinity -9.52860832
REMARK CNNscore 0.952754617
REMARK CNNaffinity 8.24232578
REMARK SMILES C=CC(=O)N1CC(CCn2c(=O)ccc3cnc(Nc4ccc(-n5ccnc5)cc4)nc32)C1
REMARK SMILES IDX 10 1 11 2 12 3 13 4 14 5 15 6 16 7 17 8 18 9 31 10 32 11
REMARK SMILES IDX 9 12 8 13 7 14 3 15 4 16 5 17 6 18 33 19 2 20 1 21 19 22
REMARK SMILES IDX 20 24 21 25 30 26 22 27 29 28 23 29 24 30 25 31 28 32 26 33
REMARK SMILES IDX 27 34
REMARK H PARENT 19 23
ROOT
ATOM      1  N   UNL     1       0.354  14.482   4.322  1.00  0.00    -0.293 N 
ATOM      2  C   UNL     1       0.949  13.304   4.748  1.00  0.00     0.252 A 
ATOM      3  O   UNL     1       2.070  13.231   5.245  1.00  0.00    -0.269 OA
ATOM      4  C   UNL     1       0.162  12.053   4.598  1.00  0.00     0.072 A 
ATOM      5  C   UNL     1      -1.075  12.058   4.090  1.00  0.00     0.019 A 
ATOM      6  C   UNL     1      -1.659  13.322   3.675  1.00  0.00     0.036 A 
ATOM      7  C   UNL     1      -2.925  13.433   3.151  1.00  0.00     0.127 A 
ATOM      8  N   UNL     1      -3.471  14.601   2.765  1.00  0.00    -0.221 NA
ATOM      9  C   UNL     1      -2.730  15.707   2.907  1.00  0.00     0.229 A 
ATOM     10  N   UNL     1      -1.485  15.696   3.407  1.00  0.00    -0.194 NA
ATOM     11  C   UNL     1      -0.962  14.510   3.787  1.00  0.00     0.148 A 
ENDROOT
BRANCH   1  12
ATOM     12  C   UNL     1       1.091  15.739   4.440  1.00  0.00     0.128 C 
BRANCH  12  13
ATOM     13  C   UNL     1       0.342  16.822   5.224  1.00  0.00     0.029 C 
BRANCH  13  14
ATOM     14  C   UNL     1       0.767  16.880   6.694  1.00  0.00     0.030 C 
ATOM     15  C   UNL     1       4.053  17.070   6.604  1.00  0.00     0.245 C 
ATOM     16  O   UNL     1       4.532  18.095   6.126  1.00  0.00    -0.270 OA
ATOM     17  N   UNL     1       2.790  16.995   7.123  1.00  0.00    -0.338 N 
ATOM     18  C   UNL     1       1.755  18.015   7.016  1.00  0.00     0.125 C 
ATOM     19  C   UNL     1       1.848  15.884   7.156  1.00  0.00     0.125 C 
BRANCH  15  20
ATOM     20  C   UNL     1       4.865  15.825   6.598  1.00  0.00     0.063 C 
ATOM     21  C   UNL     1       6.185  15.782   6.813  1.00  0.00     0.014 C 
ENDBRANCH  15  20
ENDBRANCH  13  14
ENDBRANCH  12  13
ENDBRANCH   1  12
BRANCH   9  22
ATOM     22  N   UNL     1      -3.203  16.965   2.545  1.00  0.00    -0.324 N 
ATOM     23  H   UNL     1      -3.888  16.859   1.811  1.00  0.00     0.170 HD
BRANCH  22  24
ATOM     24  C   UNL     1      -2.932  18.268   2.972  1.00  0.00     0.041 A 
ATOM     25  C   UNL     1      -1.962  18.461   3.966  1.00  0.00     0.028 A 
ATOM     26  C   UNL     1      -3.570  19.404   2.471  1.00  0.00     0.028 A 
ATOM     27  C   UNL     1      -1.640  19.739   4.445  1.00  0.00     0.029 A 
ATOM     28  C   UNL     1      -3.256  20.690   2.940  1.00  0.00     0.029 A 
ATOM     29  C   UNL     1      -2.286  20.869   3.933  1.00  0.00     0.047 A 
BRANCH  29  30
ATOM     30  N   UNL     1      -1.965  22.172   4.412  1.00  0.00    -0.306 N 
ATOM     31  C   UNL     1      -2.153  23.376   3.762  1.00  0.00     0.113 A 
ATOM     32  C   UNL     1      -1.399  22.505   5.625  1.00  0.00     0.204 A 
ATOM     33  C   UNL     1      -1.694  24.350   4.615  1.00  0.00     0.131 A 
ATOM     34  N   UNL     1      -1.227  23.801   5.771  1.00  0.00    -0.245 NA
ENDBRANCH  29  30
ENDBRANCH  22  24
ENDBRANCH   9  22
TORSDOF 7
ENDMDL
MODEL 3
REMARK minimizedAffinity -9.12778568
REMARK CNNscore 0.945010483
REMARK CNNaffinity 7.95047998
REMARK SMILES C=CC(=O)N1CC(CCn2c(=O)ccc3cnc(Nc4ccc(-n5ccnc5)cc4)nc32)C1
REMARK SMILES IDX 10 1 11 2 12 3 13 4 14 5 15 6 16 7 17 8 18 9 31 10 32 11
REMARK SMILES IDX 9 12 8 13 7 14 3 15 4 16 5 17 6 18 33 19 2 20 1 21 19 22
REMARK SMILES IDX 20 24 21 25 30 26 22 27 29 28 23 29 24 30 25 31 28 32 26 33
REMARK SMILES IDX 27 34
REMARK H PARENT 19 23
ROOT
ATOM      1  N   UNL     1       0.308  15.210   4.493  1.00  0.00    -0.293 N 
ATOM      2  C   UNL     1       1.214  14.231   4.872  1.00  0.00     0.252 A 
ATOM      3  O   UNL     1       2.297  14.456   5.406  1.00  0.00    -0.269 OA
ATOM      4  C   UNL     1       0.831  12.818   4.621  1.00  0.00     0.072 A 
ATOM      5  C   UNL     1      -0.343  12.496   4.069  1.00  0.00     0.019 A 
ATOM      6  C   UNL     1      -1.264  13.559   3.705  1.00  0.00     0.036 A 
ATOM      7  C   UNL     1      -2.496  13.331   3.141  1.00  0.00     0.127 A 
ATOM      8  N   UNL     1      -3.354  14.312   2.802  1.00  0.00    -0.221 NA
ATOM      9  C   UNL     1      -2.973  15.574   3.035  1.00  0.00     0.229 A 
ATOM     10  N   UNL     1      -1.789  15.894   3.580  1.00  0.00    -0.194 NA
ATOM     11  C   UNL     1      -0.949  14.889   3.910  1.00  0.00     0.148 A 
ENDROOT
BRANCH   1  12
ATOM     12  C   UNL     1       0.641  16.617   4.710  1.00  0.00     0.128 C 
BRANCH  12  13
ATOM     13  C   UNL     1       2.120  16.858   5.031  1.00  0.00     0.029 C 
BRANCH  13  14
ATOM     14  C   UNL     1       2.332  17.374   6.457  1.00  0.00     0.030 C 
ATOM     15  C   UNL     1       1.835  20.623   6.251  1.00  0.00     0.245 C 
ATOM     16  O   UNL     1       0.694  20.989   5.980  1.00  0.00    -0.270 OA
ATOM     17  N   UNL     1       2.129  19.406   6.803  1.00  0.00    -0.338 N 
ATOM     18  C   UNL     1       1.206  18.291   6.967  1.00  0.00     0.125 C 
ATOM     19  C   UNL     1       3.302  18.557   6.643  1.00  0.00     0.125 C 
BRANCH  15  20
ATOM     20  C   UNL     1       2.974  21.526   5.940  1.00  0.00     0.063 C 
ATOM     21  C   UNL     1       4.196  21.412   6.473  1.00  0.00     0.014 C 
ENDBRANCH  15  20
ENDBRANCH  13  14
ENDBRANCH  12  13
ENDBRANCH   1  12
BRANCH   9  22
ATOM     22  N   UNL     1      -3.786  16.660   2.728  1.00  0.00    -0.324 N 
ATOM     23  H   UNL     1      -4.730  16.333   2.581  1.00  0.00     0.170 HD
BRANCH  22  24
ATOM     24  C   UNL     1      -3.566  18.034   2.591  1.00  0.00     0.041 A 
ATOM     25  C   UNL     1      -4.542  18.809   1.947  1.00  0.00     0.028 A 
ATOM     26  C   UNL     1      -2.428  18.695   3.054  1.00  0.00     0.028 A 
ATOM     27  C   UNL     1      -4.389  20.192   1.770  1.00  0.00     0.029 A 
ATOM     28  C   UNL     1      -2.262  20.079   2.886  1.00  0.00     0.029 A 
ATOM     29  C   UNL     1      -3.244  20.842   2.241  1.00  0.00     0.047 A 
BRANCH  29  30
ATOM     30  N   UNL     1      -3.079  22.247   2.068  1.00  0.00    -0.306 N 
ATOM     31  C   UNL     1      -3.739  23.258   2.738  1.00  0.00     0.113 A 
ATOM     32  C   UNL     1      -2.227  22.891   1.195  1.00  0.00     0.204 A 
ATOM     33  C   UNL     1      -3.249  24.438   2.233  1.00  0.00     0.131 A 
ATOM     34  N   UNL     1      -2.309  24.202   1.275  1.00  0.00    -0.245 NA
ENDBRANCH  29  30
ENDBRANCH  22  24
ENDBRANCH   9  22
TORSDOF 7
ENDMDL
MODEL 4
REMARK minimizedAffinity -9.43519974
REMARK CNNscore 0.930706441
REMARK CNNaffinity 7.87910986
REMARK SMILES C=CC(=O)N1CC(CCn2c(=O)ccc3cnc(Nc4ccc(-n5ccnc5)cc4)nc32)C1
REMARK SMILES IDX 10 1 11 2 12 3 13 4 14 5 15 6 16 7 17 8 18 9 31 10 32 11
REMARK SMILES IDX 9 12 8 13 7 14 3 15 4 16 5 17 6 18 33 19 2 20 1 21 19 22
REMARK SMILES IDX 20 24 21 25 30 26 22 27 29 28 23 29 24 30 25 31 28 32 26 33
REMARK SMILES IDX 27 34
REMARK H PARENT 19 23
ROOT
ATOM      1  N   UNL     1       0.007  14.800   4.810  1.00  0.00    -0.293 N 
ATOM      2  C   UNL     1       0.830  13.768   5.233  1.00  0.00     0.252 A 
ATOM      3  O   UNL     1       1.848  13.921   5.904  1.00  0.00    -0.269 OA
ATOM      4  C   UNL     1       0.438  12.387   4.852  1.00  0.00     0.072 A 
ATOM      5  C   UNL     1      -0.671  12.141   4.147  1.00  0.00     0.019 A 
ATOM      6  C   UNL     1      -1.509  13.257   3.743  1.00  0.00     0.036 A 
ATOM      7  C   UNL     1      -2.671  13.108   3.024  1.00  0.00     0.127 A 
ATOM      8  N   UNL     1      -3.452  14.138   2.648  1.00  0.00    -0.221 NA
ATOM      9  C   UNL     1      -3.063  15.370   3.001  1.00  0.00     0.229 A 
ATOM     10  N   UNL     1      -1.944  15.613   3.700  1.00  0.00    -0.194 NA
ATOM     11  C   UNL     1      -1.180  14.560   4.065  1.00  0.00     0.148 A 
ENDROOT
BRANCH   1  12
ATOM     12  C   UNL     1       0.354  16.179   5.151  1.00  0.00     0.128 C 
BRANCH  12  13
ATOM     13  C   UNL     1       1.592  16.300   6.046  1.00  0.00     0.029 C 
BRANCH  13  14
ATOM     14  C   UNL     1       2.665  17.209   5.441  1.00  0.00     0.030 C 
ATOM     15  C   UNL     1       5.193  17.029   7.542  1.00  0.00     0.245 C 
ATOM     16  O   UNL     1       5.757  15.942   7.633  1.00  0.00    -0.270 OA
ATOM     17  N   UNL     1       4.460  17.414   6.454  1.00  0.00    -0.338 N 
ATOM     18  C   UNL     1       4.056  16.559   5.345  1.00  0.00     0.125 C 
ATOM     19  C   UNL     1       3.289  18.275   6.362  1.00  0.00     0.125 C 
BRANCH  15  20
ATOM     20  C   UNL     1       5.276  17.981   8.681  1.00  0.00     0.063 C 
ATOM     21  C   UNL     1       4.768  19.219   8.670  1.00  0.00     0.014 C 
ENDBRANCH  15  20
ENDBRANCH  13  14
ENDBRANCH  12  13
ENDBRANCH   1  12
BRANCH   9  22
ATOM     22  N   UNL     1      -3.800  16.501   2.667  1.00  0.00    -0.324 N 
ATOM     23  H   UNL     1      -4.715  16.215   2.348  1.00  0.00     0.170 HD
BRANCH  22  24
ATOM     24  C   UNL     1      -3.540  17.875   2.686  1.00  0.00     0.041 A 
ATOM     25  C   UNL     1      -2.369  18.328   3.311  1.00  0.00     0.028 A 
ATOM     26  C   UNL     1      -4.377  18.837   2.120  1.00  0.00     0.028 A 
ATOM     27  C   UNL     1      -2.045  19.691   3.371  1.00  0.00     0.029 A 
ATOM     28  C   UNL     1      -4.063  20.205   2.170  1.00  0.00     0.029 A 
ATOM     29  C   UNL     1      -2.892  20.645   2.797  1.00  0.00     0.047 A 
BRANCH  29  30
ATOM     30  N   UNL     1      -2.570  22.032   2.852  1.00  0.00    -0.306 N 
ATOM     31  C   UNL     1      -1.314  22.600   2.924  1.00  0.00     0.113 A 
ATOM     32  C   UNL     1      -3.446  23.098   2.843  1.00  0.00     0.204 A 
ATOM     33  C   UNL     1      -1.507  23.961   2.954  1.00  0.00     0.131 A 
ATOM     34  N   UNL     1      -2.835  24.263   2.903  1.00  0.00    -0.245 NA
ENDBRANCH  29  30
ENDBRANCH  22  24
ENDBRANCH   9  22
TORSDOF 7
ENDMDL
MODEL 5
REMARK minimizedAffinity -8.94145012
REMARK CNNscore 0.914793253
REMARK CNNaffinity 7.96206045
REMARK SMILES C=CC(=O)N1CC(CCn2c(=O)ccc3cnc(Nc4ccc(-n5ccnc5)cc4)nc32)C1
REMARK SMILES IDX 10 1 11 2 12 3 13 4 14 5 15 6 16 7 17 8 18 9 31 10 32 11
REMARK SMILES IDX 9 12 8 13 7 14 3 15 4 16 5 17 6 18 33 19 2 20 1 21 19 22
REMARK SMILES IDX 20 24 21 25 30 26 22 27 29 28 23 29 24 30 25 31 28 32 26 33
REMARK SMILES IDX 27 34
REMARK H PARENT 19 23
ROOT
ATOM      1  N   UNL     1       0.281  14.544   4.315  1.00  0.00    -0.293 N 
ATOM      2  C   UNL     1       0.960  13.402   4.713  1.00  0.00     0.252 A 
ATOM      3  O   UNL     1       2.086  13.399   5.204  1.00  0.00    -0.269 OA
ATOM      4  C   UNL     1       0.262  12.102   4.539  1.00  0.00     0.072 A 
ATOM      5  C   UNL     1      -0.975  12.030   4.037  1.00  0.00     0.019 A 
ATOM      6  C   UNL     1      -1.649  13.258   3.651  1.00  0.00     0.036 A 
ATOM      7  C   UNL     1      -2.922  13.291   3.134  1.00  0.00     0.127 A 
ATOM      8  N   UNL     1      -3.552  14.425   2.776  1.00  0.00    -0.221 NA
ATOM      9  C   UNL     1      -2.890  15.578   2.938  1.00  0.00     0.229 A 
ATOM     10  N   UNL     1      -1.645  15.644   3.433  1.00  0.00    -0.194 NA
ATOM     11  C   UNL     1      -1.037  14.490   3.785  1.00  0.00     0.148 A 
ENDROOT
BRANCH   1  12
ATOM     12  C   UNL     1       0.928  15.847   4.456  1.00  0.00     0.128 C 
BRANCH  12  13
ATOM     13  C   UNL     1       2.220  15.809   5.279  1.00  0.00     0.029 C 
BRANCH  13  14
ATOM     14  C   UNL     1       2.018  16.315   6.709  1.00  0.00     0.030 C 
ATOM     15  C   UNL     1       2.664  19.540   6.552  1.00  0.00     0.245 C 
ATOM     16  O   UNL     1       1.887  20.226   5.893  1.00  0.00    -0.270 OA
ATOM     17  N   UNL     1       2.334  18.327   7.090  1.00  0.00    -0.338 N 
ATOM     18  C   UNL     1       1.124  17.564   6.813  1.00  0.00     0.125 C 
ATOM     19  C   UNL     1       3.155  17.148   7.332  1.00  0.00     0.125 C 
BRANCH  15  20
ATOM     20  C   UNL     1       4.053  20.026   6.761  1.00  0.00     0.063 C 
ATOM     21  C   UNL     1       4.493  21.237   6.400  1.00  0.00     0.014 C 
ENDBRANCH  15  20
ENDBRANCH  13  14
ENDBRANCH  12  13
ENDBRANCH   1  12
BRANCH   9  22
ATOM     22  N   UNL     1      -3.452  16.806   2.604  1.00  0.00    -0.324 N 
ATOM     23  H   UNL     1      -4.249  16.650   2.004  1.00  0.00     0.170 HD
BRANCH  22  24
ATOM     24  C   UNL     1      -3.149  18.134   2.918  1.00  0.00     0.041 A 
ATOM     25  C   UNL     1      -2.098  18.390   3.810  1.00  0.00     0.028 A 
ATOM     26  C   UNL     1      -3.830  19.236   2.399  1.00  0.00     0.028 A 
ATOM     27  C   UNL     1      -1.739  19.697   4.173  1.00  0.00     0.029 A 
ATOM     28  C   UNL     1      -3.481  20.549   2.752  1.00  0.00     0.029 A 
ATOM     29  C   UNL     1      -2.430  20.792   3.644  1.00  0.00     0.047 A 
BRANCH  29  30
ATOM     30  N   UNL     1      -2.072  22.123   4.005  1.00  0.00    -0.306 N 
ATOM     31  C   UNL     1      -1.800  22.605   5.269  1.00  0.00     0.113 A 
ATOM     32  C   UNL     1      -1.922  23.209   3.167  1.00  0.00     0.204 A 
ATOM     33  C   UNL     1      -1.506  23.939   5.118  1.00  0.00     0.131 A 
ATOM     34  N   UNL     1      -1.583  24.307   3.808  1.00  0.00    -0.245 NA
ENDBRANCH  29  30
ENDBRANCH  22  24
ENDBRANCH   9  22
TORSDOF 7
ENDMDL
MODEL 6
REMARK minimizedAffinity -8.88048649
REMARK CNNscore 0.497129261
REMARK CNNaffinity 7.42660522
REMARK SMILES C=CC(=O)N1CC(CCn2c(=O)ccc3cnc(Nc4ccc(-n5ccnc5)cc4)nc32)C1
REMARK SMILES IDX 10 1 11 2 12 3 13 4 14 5 15 6 16 7 17 8 18 9 31 10 32 11
REMARK SMILES IDX 9 12 8 13 7 14 3 15 4 16 5 17 6 18 33 19 2 20 1 21 19 22
REMARK SMILES IDX 20 24 21 25 30 26 22 27 29 28 23 29 24 30 25 31 28 32 26 33
REMARK SMILES IDX 27 34
REMARK H PARENT 19 23
ROOT
ATOM      1  N   UNL     1       0.118  14.318   4.133  1.00  0.00    -0.293 N 
ATOM      2  C   UNL     1       0.362  12.960   4.272  1.00  0.00     0.252 A 
ATOM      3  O   UNL     1       1.410  12.483   4.703  1.00  0.00    -0.269 OA
ATOM      4  C   UNL     1      -0.728  12.031   3.882  1.00  0.00     0.072 A 
ATOM      5  C   UNL     1      -1.905  12.478   3.431  1.00  0.00     0.019 A 
ATOM      6  C   UNL     1      -2.116  13.911   3.320  1.00  0.00     0.036 A 
ATOM      7  C   UNL     1      -3.291  14.470   2.877  1.00  0.00     0.127 A 
ATOM      8  N   UNL     1      -3.493  15.797   2.773  1.00  0.00    -0.221 NA
ATOM      9  C   UNL     1      -2.485  16.605   3.126  1.00  0.00     0.229 A 
ATOM     10  N   UNL     1      -1.302  16.151   3.568  1.00  0.00    -0.194 NA
ATOM     11  C   UNL     1      -1.128  14.815   3.663  1.00  0.00     0.148 A 
ENDROOT
BRANCH   1  12
ATOM     12  C   UNL     1       1.163  15.275   4.496  1.00  0.00     0.128 C 
BRANCH  12  13
ATOM     13  C   UNL     1       0.971  15.904   5.879  1.00  0.00     0.029 C 
BRANCH  13  14
ATOM     14  C   UNL     1       1.847  15.246   6.948  1.00  0.00     0.030 C 
ATOM     15  C   UNL     1       4.911  16.211   6.226  1.00  0.00     0.245 C 
ATOM     16  O   UNL     1       5.155  17.408   6.352  1.00  0.00    -0.270 OA
ATOM     17  N   UNL     1       3.891  15.573   6.877  1.00  0.00    -0.338 N 
ATOM     18  C   UNL     1       2.826  16.212   7.639  1.00  0.00     0.125 C 
ATOM     19  C   UNL     1       3.069  14.443   6.463  1.00  0.00     0.125 C 
BRANCH  15  20
ATOM     20  C   UNL     1       5.740  15.402   5.295  1.00  0.00     0.063 C 
ATOM     21  C   UNL     1       7.032  15.114   5.489  1.00  0.00     0.014 C 
ENDBRANCH  15  20
ENDBRANCH  13  14
ENDBRANCH  12  13
ENDBRANCH   1  12
BRANCH   9  22
ATOM     22  N   UNL     1      -2.592  17.990   3.062  1.00  0.00    -0.324 N 
ATOM     23  H   UNL     1      -3.271  18.235   2.356  1.00  0.00     0.170 HD
BRANCH  22  24
ATOM     24  C   UNL     1      -1.980  19.048   3.742  1.00  0.00     0.041 A 
ATOM     25  C   UNL     1      -2.155  20.351   3.253  1.00  0.00     0.028 A 
ATOM     26  C   UNL     1      -1.197  18.894   4.886  1.00  0.00     0.028 A 
ATOM     27  C   UNL     1      -1.570  21.460   3.882  1.00  0.00     0.029 A 
ATOM     28  C   UNL     1      -0.606  19.995   5.526  1.00  0.00     0.029 A 
ATOM     29  C   UNL     1      -0.788  21.290   5.029  1.00  0.00     0.047 A 
BRANCH  29  30
ATOM     30  N   UNL     1      -0.190  22.411   5.676  1.00  0.00    -0.306 N 
ATOM     31  C   UNL     1      -0.827  23.526   6.182  1.00  0.00     0.113 A 
ATOM     32  C   UNL     1       1.150  22.616   5.931  1.00  0.00     0.204 A 
ATOM     33  C   UNL     1       0.159  24.327   6.707  1.00  0.00     0.131 A 
ATOM     34  N   UNL     1       1.385  23.755   6.547  1.00  0.00    -0.245 NA
ENDBRANCH  29  30
ENDBRANCH  22  24
ENDBRANCH   9  22
TORSDOF 7
ENDMDL
MODEL 7
REMARK minimizedAffinity -8.46881008
REMARK CNNscore 0.400817871
REMARK CNNaffinity 7.40350723
REMARK SMILES C=CC(=O)N1CC(CCn2c(=O)ccc3cnc(Nc4ccc(-n5ccnc5)cc4)nc32)C1
REMARK SMILES IDX 10 1 11 2 12 3 13 4 14 5 15 6 16 7 17 8 18 9 31 10 32 11
REMARK SMILES IDX 9 12 8 13 7 14 3 15 4 16 5 17 6 18 33 19 2 20 1 21 19 22
REMARK SMILES IDX 20 24 21 25 30 26 22 27 29 28 23 29 24 30 25 31 28 32 26 33
REMARK SMILES IDX 27 34
REMARK H PARENT 19 23
ROOT
ATOM      1  N   UNL     1       0.143  14.407   4.213  1.00  0.00    -0.293 N 
ATOM      2  C   UNL     1       0.203  13.021   4.229  1.00  0.00     0.252 A 
ATOM      3  O   UNL     1       1.178  12.373   4.600  1.00  0.00    -0.269 OA
ATOM      4  C   UNL     1      -1.003  12.284   3.776  1.00  0.00     0.072 A 
ATOM      5  C   UNL     1      -2.111  12.922   3.383  1.00  0.00     0.019 A 
ATOM      6  C   UNL     1      -2.128  14.375   3.402  1.00  0.00     0.036 A 
ATOM      7  C   UNL     1      -3.220  15.122   3.026  1.00  0.00     0.127 A 
ATOM      8  N   UNL     1      -3.242  16.468   3.042  1.00  0.00    -0.221 NA
ATOM      9  C   UNL     1      -2.134  17.100   3.448  1.00  0.00     0.229 A 
ATOM     10  N   UNL     1      -1.021  16.455   3.831  1.00  0.00    -0.194 NA
ATOM     11  C   UNL     1      -1.027  15.105   3.806  1.00  0.00     0.148 A 
ENDROOT
BRANCH   1  12
ATOM     12  C   UNL     1       1.308  15.179   4.641  1.00  0.00     0.128 C 
BRANCH  12  13
ATOM     13  C   UNL     1       2.093  14.529   5.785  1.00  0.00     0.029 C 
BRANCH  13  14
ATOM     14  C   UNL     1       1.821  15.197   7.135  1.00  0.00     0.030 C 
ATOM     15  C   UNL     1       1.288  18.364   6.408  1.00  0.00     0.245 C 
ATOM     16  O   UNL     1       0.279  18.616   5.755  1.00  0.00    -0.270 OA
ATOM     17  N   UNL     1       1.439  17.232   7.162  1.00  0.00    -0.338 N 
ATOM     18  C   UNL     1       0.556  16.073   7.158  1.00  0.00     0.125 C 
ATOM     19  C   UNL     1       2.634  16.460   7.475  1.00  0.00     0.125 C 
BRANCH  15  20
ATOM     20  C   UNL     1       2.431  19.313   6.365  1.00  0.00     0.063 C 
ATOM     21  C   UNL     1       3.562  19.168   7.065  1.00  0.00     0.014 C 
ENDBRANCH  15  20
ENDBRANCH  13  14
ENDBRANCH  12  13
ENDBRANCH   1  12
BRANCH   9  22
ATOM     22  N   UNL     1      -2.054  18.487   3.507  1.00  0.00    -0.324 N 
ATOM     23  H   UNL     1      -1.444  18.750   4.268  1.00  0.00     0.170 HD
BRANCH  22  24
ATOM     24  C   UNL     1      -2.618  19.529   2.764  1.00  0.00     0.041 A 
ATOM     25  C   UNL     1      -3.952  19.410   2.347  1.00  0.00     0.028 A 
ATOM     26  C   UNL     1      -1.937  20.692   2.403  1.00  0.00     0.028 A 
ATOM     27  C   UNL     1      -4.583  20.413   1.597  1.00  0.00     0.029 A 
ATOM     28  C   UNL     1      -2.556  21.704   1.654  1.00  0.00     0.029 A 
ATOM     29  C   UNL     1      -3.888  21.574   1.243  1.00  0.00     0.047 A 
BRANCH  29  30
ATOM     30  N   UNL     1      -4.521  22.599   0.482  1.00  0.00    -0.306 N 
ATOM     31  C   UNL     1      -5.596  22.467  -0.374  1.00  0.00     0.113 A 
ATOM     32  C   UNL     1      -4.192  23.938   0.441  1.00  0.00     0.204 A 
ATOM     33  C   UNL     1      -5.847  23.722  -0.873  1.00  0.00     0.131 A 
ATOM     34  N   UNL     1      -4.971  24.632  -0.362  1.00  0.00    -0.245 NA
ENDBRANCH  29  30
ENDBRANCH  22  24
ENDBRANCH   9  22
TORSDOF 7
ENDMDL
MODEL 8
REMARK minimizedAffinity -8.92535019
REMARK CNNscore 0.321563601
REMARK CNNaffinity 7.14923143
REMARK SMILES C=CC(=O)N1CC(CCn2c(=O)ccc3cnc(Nc4ccc(-n5ccnc5)cc4)nc32)C1
REMARK SMILES IDX 10 1 11 2 12 3 13 4 14 5 15 6 16 7 17 8 18 9 31 10 32 11
REMARK SMILES IDX 9 12 8 13 7 14 3 15 4 16 5 17 6 18 33 19 2 20 1 21 19 22
REMARK SMILES IDX 20 24 21 25 30 26 22 27 29 28 23 29 24 30 25 31 28 32 26 33
REMARK SMILES IDX 27 34
REMARK H PARENT 19 23
ROOT
ATOM      1  N   UNL     1       0.243  14.478   4.353  1.00  0.00    -0.293 N 
ATOM      2  C   UNL     1       0.364  13.098   4.390  1.00  0.00     0.252 A 
ATOM      3  O   UNL     1       1.353  12.497   4.805  1.00  0.00    -0.269 OA
ATOM      4  C   UNL     1      -0.791  12.301   3.903  1.00  0.00     0.072 A 
ATOM      5  C   UNL     1      -1.910  12.885   3.461  1.00  0.00     0.019 A 
ATOM      6  C   UNL     1      -1.993  14.335   3.460  1.00  0.00     0.036 A 
ATOM      7  C   UNL     1      -3.101  15.028   3.035  1.00  0.00     0.127 A 
ATOM      8  N   UNL     1      -3.184  16.372   3.031  1.00  0.00    -0.221 NA
ATOM      9  C   UNL     1      -2.120  17.058   3.470  1.00  0.00     0.229 A 
ATOM     10  N   UNL     1      -0.995  16.468   3.902  1.00  0.00    -0.194 NA
ATOM     11  C   UNL     1      -0.941  15.119   3.895  1.00  0.00     0.148 A 
ENDROOT
BRANCH   1  12
ATOM     12  C   UNL     1       1.356  15.307   4.813  1.00  0.00     0.128 C 
BRANCH  12  13
ATOM     13  C   UNL     1       1.397  15.497   6.333  1.00  0.00     0.029 C 
BRANCH  13  14
ATOM     14  C   UNL     1       2.142  16.769   6.744  1.00  0.00     0.030 C 
ATOM     15  C   UNL     1       5.267  16.229   5.856  1.00  0.00     0.245 C 
ATOM     16  O   UNL     1       5.489  16.143   4.651  1.00  0.00    -0.270 OA
ATOM     17  N   UNL     1       4.179  16.871   6.381  1.00  0.00    -0.338 N 
ATOM     18  C   UNL     1       3.029  17.363   5.635  1.00  0.00     0.125 C 
ATOM     19  C   UNL     1       3.417  16.598   7.593  1.00  0.00     0.125 C 
BRANCH  15  20
ATOM     20  C   UNL     1       6.203  15.580   6.810  1.00  0.00     0.063 C 
ATOM     21  C   UNL     1       6.656  16.151   7.932  1.00  0.00     0.014 C 
ENDBRANCH  15  20
ENDBRANCH  13  14
ENDBRANCH  12  13
ENDBRANCH   1  12
BRANCH   9  22
ATOM     22  N   UNL     1      -2.104  18.448   3.513  1.00  0.00    -0.324 N 
ATOM     23  H   UNL     1      -1.526  18.747   4.285  1.00  0.00     0.170 HD
BRANCH  22  24
ATOM     24  C   UNL     1      -2.696  19.454   2.743  1.00  0.00     0.041 A 
ATOM     25  C   UNL     1      -3.977  19.233   2.218  1.00  0.00     0.028 A 
ATOM     26  C   UNL     1      -2.089  20.678   2.455  1.00  0.00     0.028 A 
ATOM     27  C   UNL     1      -4.631  20.195   1.435  1.00  0.00     0.029 A 
ATOM     28  C   UNL     1      -2.732  21.651   1.674  1.00  0.00     0.029 A 
ATOM     29  C   UNL     1      -4.012  21.418   1.156  1.00  0.00     0.047 A 
BRANCH  29  30
ATOM     30  N   UNL     1      -4.668  22.403   0.362  1.00  0.00    -0.306 N 
ATOM     31  C   UNL     1      -4.797  22.424  -1.012  1.00  0.00     0.113 A 
ATOM     32  C   UNL     1      -5.311  23.542   0.800  1.00  0.00     0.204 A 
ATOM     33  C   UNL     1      -5.504  23.563  -1.316  1.00  0.00     0.131 A 
ATOM     34  N   UNL     1      -5.821  24.253  -0.184  1.00  0.00    -0.245 NA
ENDBRANCH  29  30
ENDBRANCH  22  24
ENDBRANCH   9  22
TORSDOF 7
ENDMDL
MODEL 9
REMARK minimizedAffinity -9.27726555
REMARK CNNscore 0.309726804
REMARK CNNaffinity 7.12883615
REMARK SMILES C=CC(=O)N1CC(CCn2c(=O)ccc3cnc(Nc4ccc(-n5ccnc5)cc4)nc32)C1
REMARK SMILES IDX 10 1 11 2 12 3 13 4 14 5 15 6 16 7 17 8 18 9 31 10 32 11
REMARK SMILES IDX 9 12 8 13 7 14 3 15 4 16 5 17 6 18 33 19 2 20 1 21 19 22
REMARK SMILES IDX 20 24 21 25 30 26 22 27 29 28 23 29 24 30 25 31 28 32 26 33
REMARK SMILES IDX 27 34
REMARK H PARENT 19 23
ROOT
ATOM      1  N   UNL     1       0.256  14.475   4.314  1.00  0.00    -0.293 N 
ATOM      2  C   UNL     1       0.281  13.090   4.364  1.00  0.00     0.252 A 
ATOM      3  O   UNL     1       1.214  12.428   4.813  1.00  0.00    -0.269 OA
ATOM      4  C   UNL     1      -0.909  12.369   3.846  1.00  0.00     0.072 A 
ATOM      5  C   UNL     1      -1.973  13.023   3.366  1.00  0.00     0.019 A 
ATOM      6  C   UNL     1      -1.956  14.476   3.353  1.00  0.00     0.036 A 
ATOM      7  C   UNL     1      -3.002  15.239   2.889  1.00  0.00     0.127 A 
ATOM      8  N   UNL     1      -2.993  16.585   2.874  1.00  0.00    -0.221 NA
ATOM      9  C   UNL     1      -1.900  17.201   3.341  1.00  0.00     0.229 A 
ATOM     10  N   UNL     1      -0.831  16.541   3.812  1.00  0.00    -0.194 NA
ATOM     11  C   UNL     1      -0.868  15.190   3.815  1.00  0.00     0.148 A 
ENDROOT
BRANCH   1  12
ATOM     12  C   UNL     1       1.407  15.231   4.803  1.00  0.00     0.128 C 
BRANCH  12  13
ATOM     13  C   UNL     1       1.400  15.455   6.319  1.00  0.00     0.029 C 
BRANCH  13  14
ATOM     14  C   UNL     1       2.098  16.757   6.722  1.00  0.00     0.030 C 
ATOM     15  C   UNL     1       5.281  16.237   6.056  1.00  0.00     0.245 C 
ATOM     16  O   UNL     1       5.581  16.105   4.872  1.00  0.00    -0.270 OA
ATOM     17  N   UNL     1       4.152  16.880   6.484  1.00  0.00    -0.338 N 
ATOM     18  C   UNL     1       3.044  17.320   5.646  1.00  0.00     0.125 C 
ATOM     19  C   UNL     1       3.319  16.644   7.655  1.00  0.00     0.125 C 
BRANCH  15  20
ATOM     20  C   UNL     1       6.165  15.645   7.093  1.00  0.00     0.063 C 
ATOM     21  C   UNL     1       6.757  16.343   8.070  1.00  0.00     0.014 C 
ENDBRANCH  15  20
ENDBRANCH  13  14
ENDBRANCH  12  13
ENDBRANCH   1  12
BRANCH   9  22
ATOM     22  N   UNL     1      -1.791  18.587   3.375  1.00  0.00    -0.324 N 
ATOM     23  H   UNL     1      -0.815  18.839   3.444  1.00  0.00     0.170 HD
BRANCH  22  24
ATOM     24  C   UNL     1      -2.711  19.639   3.335  1.00  0.00     0.041 A 
ATOM     25  C   UNL     1      -3.735  19.598   2.378  1.00  0.00     0.028 A 
ATOM     26  C   UNL     1      -2.679  20.740   4.191  1.00  0.00     0.028 A 
ATOM     27  C   UNL     1      -4.692  20.619   2.277  1.00  0.00     0.029 A 
ATOM     28  C   UNL     1      -3.631  21.769   4.103  1.00  0.00     0.029 A 
ATOM     29  C   UNL     1      -4.648  21.717   3.143  1.00  0.00     0.047 A 
BRANCH  29  30
ATOM     30  N   UNL     1      -5.617  22.758   3.049  1.00  0.00    -0.306 N 
ATOM     31  C   UNL     1      -5.409  24.064   2.653  1.00  0.00     0.113 A 
ATOM     32  C   UNL     1      -6.964  22.680   3.334  1.00  0.00     0.204 A 
ATOM     33  C   UNL     1      -6.632  24.687   2.723  1.00  0.00     0.131 A 
ATOM     34  N   UNL     1      -7.594  23.820   3.146  1.00  0.00    -0.245 NA
ENDBRANCH  29  30
ENDBRANCH  22  24
ENDBRANCH   9  22
TORSDOF 7
ENDMDL
