MODEL 1
REMARK minimizedAffinity -8.86609936
REMARK CNNscore 0.9785285
REMARK CNNaffinity 8.60037327
REMARK SMILES C=CC(=O)N1CC(CCn2c(=O)ccc3cnc(Nc4ccc(C5CCN(C)CC5)cc4)nc32)C1
REMARK SMILES IDX 10 1 11 2 12 3 13 4 14 5 15 6 16 7 17 8 18 9 33 10 34 11
REMARK SMILES IDX 9 12 8 13 7 14 3 15 4 16 5 17 6 18 35 19 2 20 1 21 19 22
REMARK SMILES IDX 20 24 21 25 32 26 22 27 31 28 23 29 24 30 25 31 30 32 26 33
REMARK SMILES IDX 29 34 27 35 28 36
REMARK H PARENT 19 23
ROOT
ATOM      1  N   UNL     1       0.303  14.471   4.193  1.00  0.00    -0.293 N 
ATOM      2  C   UNL     1       1.113  13.433   4.624  1.00  0.00     0.252 A 
ATOM      3  O   UNL     1       2.289  13.560   4.958  1.00  0.00    -0.269 OA
ATOM      4  C   UNL     1       0.511  12.077   4.672  1.00  0.00     0.072 A 
ATOM      5  C   UNL     1      -0.751  11.854   4.288  1.00  0.00     0.019 A 
ATOM      6  C   UNL     1      -1.549  12.973   3.818  1.00  0.00     0.036 A 
ATOM      7  C   UNL     1      -2.847  12.846   3.385  1.00  0.00     0.127 A 
ATOM      8  N   UNL     1      -3.591  13.879   2.945  1.00  0.00    -0.221 NA
ATOM      9  C   UNL     1      -3.024  15.092   2.940  1.00  0.00     0.229 A 
ATOM     10  N   UNL     1      -1.765  15.313   3.349  1.00  0.00    -0.194 NA
ATOM     11  C   UNL     1      -1.040  14.257   3.777  1.00  0.00     0.148 A 
ENDROOT
BRANCH   1  12
ATOM     12  C   UNL     1       0.847  15.827   4.132  1.00  0.00     0.128 C 
BRANCH  12  13
ATOM     13  C   UNL     1       2.328  15.917   4.516  1.00  0.00     0.029 C 
BRANCH  13  14
ATOM     14  C   UNL     1       2.584  16.932   5.635  1.00  0.00     0.030 C 
ATOM     15  C   UNL     1      -0.278  16.963   7.206  1.00  0.00     0.245 C 
ATOM     16  O   UNL     1      -1.238  17.351   6.546  1.00  0.00    -0.270 OA
ATOM     17  N   UNL     1       1.020  17.308   6.940  1.00  0.00    -0.338 N 
ATOM     18  C   UNL     1       1.493  18.013   5.753  1.00  0.00     0.125 C 
ATOM     19  C   UNL     1       2.232  16.507   7.075  1.00  0.00     0.125 C 
BRANCH  15  20
ATOM     20  C   UNL     1      -0.511  16.043   8.350  1.00  0.00     0.063 C 
ATOM     21  C   UNL     1      -0.473  14.709   8.249  1.00  0.00     0.014 C 
ENDBRANCH  15  20
ENDBRANCH  13  14
ENDBRANCH  12  13
ENDBRANCH   1  12
BRANCH   9  22
ATOM     22  N   UNL     1      -3.703  16.227   2.510  1.00  0.00    -0.324 N 
ATOM     23  H   UNL     1      -4.610  15.954   2.163  1.00  0.00     0.170 HD
BRANCH  22  24
ATOM     24  C   UNL     1      -3.452  17.601   2.590  1.00  0.00     0.041 A 
ATOM     25  C   UNL     1      -2.330  18.034   3.314  1.00  0.00     0.026 A 
ATOM     26  C   UNL     1      -4.265  18.581   2.019  1.00  0.00     0.026 A 
ATOM     27  C   UNL     1      -2.020  19.394   3.438  1.00  0.00     0.006 A 
ATOM     28  C   UNL     1      -3.960  19.943   2.140  1.00  0.00     0.006 A 
ATOM     29  C   UNL     1      -2.828  20.368   2.845  1.00  0.00    -0.045 A 
BRANCH  29  30
ATOM     30  C   UNL     1      -2.466  21.837   2.975  1.00  0.00     0.022 C 
ATOM     31  C   UNL     1      -2.188  22.264   4.431  1.00  0.00     0.024 C 
ATOM     32  C   UNL     1      -1.318  22.229   2.030  1.00  0.00     0.024 C 
ATOM     33  C   UNL     1      -0.703  22.515   4.693  1.00  0.00     0.085 C 
ATOM     34  C   UNL     1      -0.720  23.566   2.461  1.00  0.00     0.085 C 
ATOM     35  N   UNL     1      -0.088  23.490   3.785  1.00  0.00    -0.306 NA
ATOM     36  C   UNL     1       0.018  24.817   4.386  1.00  0.00     0.105 C 
ENDBRANCH  29  30
ENDBRANCH  22  24
ENDBRANCH   9  22
TORSDOF 7
ENDMDL
MODEL 2
REMARK minimizedAffinity -9.2063055
REMARK CNNscore 0.959875822
REMARK CNNaffinity 8.3258791
REMARK SMILES C=CC(=O)N1CC(CCn2c(=O)ccc3cnc(Nc4ccc(C5CCN(C)CC5)cc4)nc32)C1
REMARK SMILES IDX 10 1 11 2 12 3 13 4 14 5 15 6 16 7 17 8 18 9 33 10 34 11
REMARK SMILES IDX 9 12 8 13 7 14 3 15 4 16 5 17 6 18 35 19 2 20 1 21 19 22
REMARK SMILES IDX 20 24 21 25 32 26 22 27 31 28 23 29 24 30 25 31 30 32 26 33
REMARK SMILES IDX 29 34 27 35 28 36
REMARK H PARENT 19 23
ROOT
ATOM      1  N   UNL     1       0.183  14.549   4.381  1.00  0.00    -0.293 N 
ATOM      2  C   UNL     1       1.034  13.521   4.756  1.00  0.00     0.252 A 
ATOM      3  O   UNL     1       2.185  13.682   5.155  1.00  0.00    -0.269 OA
ATOM      4  C   UNL     1       0.511  12.135   4.653  1.00  0.00     0.072 A 
ATOM      5  C   UNL     1      -0.718  11.881   4.191  1.00  0.00     0.019 A 
ATOM      6  C   UNL     1      -1.561  12.992   3.786  1.00  0.00     0.036 A 
ATOM      7  C   UNL     1      -2.830  12.835   3.282  1.00  0.00     0.127 A 
ATOM      8  N   UNL     1      -3.614  13.862   2.902  1.00  0.00    -0.221 NA
ATOM      9  C   UNL     1      -3.119  15.099   3.033  1.00  0.00     0.229 A 
ATOM     10  N   UNL     1      -1.893  15.350   3.519  1.00  0.00    -0.194 NA
ATOM     11  C   UNL     1      -1.127  14.301   3.884  1.00  0.00     0.148 A 
ENDROOT
BRANCH   1  12
ATOM     12  C   UNL     1       0.648  15.932   4.468  1.00  0.00     0.128 C 
BRANCH  12  13
ATOM     13  C   UNL     1       2.007  16.086   5.159  1.00  0.00     0.029 C 
BRANCH  13  14
ATOM     14  C   UNL     1       1.874  16.468   6.637  1.00  0.00     0.030 C 
ATOM     15  C   UNL     1       3.326  19.391   6.728  1.00  0.00     0.245 C 
ATOM     16  O   UNL     1       4.518  19.397   6.435  1.00  0.00    -0.270 OA
ATOM     17  N   UNL     1       2.665  18.294   7.213  1.00  0.00    -0.338 N 
ATOM     18  C   UNL     1       3.193  16.936   7.279  1.00  0.00     0.125 C 
ATOM     19  C   UNL     1       1.295  17.860   6.963  1.00  0.00     0.125 C 
BRANCH  15  20
ATOM     20  C   UNL     1       2.526  20.628   6.530  1.00  0.00     0.063 C 
ATOM     21  C   UNL     1       1.208  20.630   6.295  1.00  0.00     0.014 C 
ENDBRANCH  15  20
ENDBRANCH  13  14
ENDBRANCH  12  13
ENDBRANCH   1  12
BRANCH   9  22
ATOM     22  N   UNL     1      -3.845  16.230   2.674  1.00  0.00    -0.324 N 
ATOM     23  H   UNL     1      -4.809  15.968   2.531  1.00  0.00     0.170 HD
BRANCH  22  24
ATOM     24  C   UNL     1      -3.553  17.597   2.618  1.00  0.00     0.041 A 
ATOM     25  C   UNL     1      -2.358  18.050   3.198  1.00  0.00     0.026 A 
ATOM     26  C   UNL     1      -4.391  18.554   2.043  1.00  0.00     0.026 A 
ATOM     27  C   UNL     1      -2.003  19.404   3.180  1.00  0.00     0.006 A 
ATOM     28  C   UNL     1      -4.041  19.911   2.023  1.00  0.00     0.006 A 
ATOM     29  C   UNL     1      -2.838  20.354   2.585  1.00  0.00    -0.045 A 
BRANCH  29  30
ATOM     30  C   UNL     1      -2.428  21.815   2.558  1.00  0.00     0.022 C 
ATOM     31  C   UNL     1      -2.009  22.349   3.943  1.00  0.00     0.024 C 
ATOM     32  C   UNL     1      -1.361  22.092   1.487  1.00  0.00     0.024 C 
ATOM     33  C   UNL     1      -0.501  22.573   4.052  1.00  0.00     0.085 C 
ATOM     34  C   UNL     1      -0.692  23.439   1.751  1.00  0.00     0.085 C 
ATOM     35  N   UNL     1       0.055  23.449   3.015  1.00  0.00    -0.306 NA
ATOM     36  C   UNL     1       0.248  24.817   3.492  1.00  0.00     0.105 C 
ENDBRANCH  29  30
ENDBRANCH  22  24
ENDBRANCH   9  22
TORSDOF 7
ENDMDL
MODEL 3
REMARK minimizedAffinity -9.6794529
REMARK CNNscore 0.956149578
REMARK CNNaffinity 8.19481468
REMARK SMILES C=CC(=O)N1CC(CCn2c(=O)ccc3cnc(Nc4ccc(C5CCN(C)CC5)cc4)nc32)C1
REMARK SMILES IDX 10 1 11 2 12 3 13 4 14 5 15 6 16 7 17 8 18 9 33 10 34 11
REMARK SMILES IDX 9 12 8 13 7 14 3 15 4 16 5 17 6 18 35 19 2 20 1 21 19 22
REMARK SMILES IDX 20 24 21 25 32 26 22 27 31 28 23 29 24 30 25 31 30 32 26 33
REMARK SMILES IDX 29 34 27 35 28 36
REMARK H PARENT 19 23
ROOT
ATOM      1  N   UNL     1       0.051  14.520   4.745  1.00  0.00    -0.293 N 
ATOM      2  C   UNL     1       0.881  13.479   5.131  1.00  0.00     0.252 A 
ATOM      3  O   UNL     1       1.968  13.625   5.685  1.00  0.00    -0.269 OA
ATOM      4  C   UNL     1       0.419  12.098   4.838  1.00  0.00     0.072 A 
ATOM      5  C   UNL     1      -0.734  11.863   4.203  1.00  0.00     0.019 A 
ATOM      6  C   UNL     1      -1.554  12.990   3.796  1.00  0.00     0.036 A 
ATOM      7  C   UNL     1      -2.745  12.855   3.123  1.00  0.00     0.127 A 
ATOM      8  N   UNL     1      -3.508  13.897   2.741  1.00  0.00    -0.221 NA
ATOM      9  C   UNL     1      -3.073  15.126   3.044  1.00  0.00     0.229 A 
ATOM     10  N   UNL     1      -1.926  15.355   3.702  1.00  0.00    -0.194 NA
ATOM     11  C   UNL     1      -1.178  14.293   4.066  1.00  0.00     0.148 A 
ENDROOT
BRANCH   1  12
ATOM     12  C   UNL     1       0.458  15.898   5.014  1.00  0.00     0.128 C 
BRANCH  12  13
ATOM     13  C   UNL     1       1.737  16.014   5.851  1.00  0.00     0.029 C 
BRANCH  13  14
ATOM     14  C   UNL     1       2.781  16.928   5.203  1.00  0.00     0.030 C 
ATOM     15  C   UNL     1       4.977  17.274   7.594  1.00  0.00     0.245 C 
ATOM     16  O   UNL     1       4.565  17.821   8.614  1.00  0.00    -0.270 OA
ATOM     17  N   UNL     1       4.421  17.451   6.356  1.00  0.00    -0.338 N 
ATOM     18  C   UNL     1       3.167  18.141   6.070  1.00  0.00     0.125 C 
ATOM     19  C   UNL     1       4.257  16.487   5.273  1.00  0.00     0.125 C 
BRANCH  15  20
ATOM     20  C   UNL     1       6.129  16.340   7.689  1.00  0.00     0.063 C 
ATOM     21  C   UNL     1       6.509  15.527   6.697  1.00  0.00     0.014 C 
ENDBRANCH  15  20
ENDBRANCH  13  14
ENDBRANCH  12  13
ENDBRANCH   1  12
BRANCH   9  22
ATOM     22  N   UNL     1      -3.784  16.271   2.699  1.00  0.00    -0.324 N 
ATOM     23  H   UNL     1      -4.742  16.017   2.511  1.00  0.00     0.170 HD
BRANCH  22  24
ATOM     24  C   UNL     1      -3.489  17.638   2.701  1.00  0.00     0.041 A 
ATOM     25  C   UNL     1      -2.318  18.068   3.345  1.00  0.00     0.026 A 
ATOM     26  C   UNL     1      -4.301  18.617   2.126  1.00  0.00     0.026 A 
ATOM     27  C   UNL     1      -1.961  19.421   3.389  1.00  0.00     0.006 A 
ATOM     28  C   UNL     1      -3.949  19.973   2.167  1.00  0.00     0.006 A 
ATOM     29  C   UNL     1      -2.770  20.393   2.793  1.00  0.00    -0.045 A 
BRANCH  29  30
ATOM     30  C   UNL     1      -2.358  21.854   2.834  1.00  0.00     0.022 C 
ATOM     31  C   UNL     1      -1.942  22.324   4.242  1.00  0.00     0.024 C 
ATOM     32  C   UNL     1      -1.288  22.177   1.778  1.00  0.00     0.024 C 
ATOM     33  C   UNL     1      -0.433  22.540   4.365  1.00  0.00     0.085 C 
ATOM     34  C   UNL     1      -0.618  23.509   2.104  1.00  0.00     0.085 C 
ATOM     35  N   UNL     1       0.126  23.462   3.370  1.00  0.00    -0.306 NA
ATOM     36  C   UNL     1       0.320  24.806   3.909  1.00  0.00     0.105 C 
ENDBRANCH  29  30
ENDBRANCH  22  24
ENDBRANCH   9  22
TORSDOF 7
ENDMDL
MODEL 4
REMARK minimizedAffinity -8.56490707
REMARK CNNscore 0.649753273
REMARK CNNaffinity 7.75251198
REMARK SMILES C=CC(=O)N1CC(CCn2c(=O)ccc3cnc(Nc4ccc(C5CCN(C)CC5)cc4)nc32)C1
REMARK SMILES IDX 10 1 11 2 12 3 13 4 14 5 15 6 16 7 17 8 18 9 33 10 34 11
REMARK SMILES IDX 9 12 8 13 7 14 3 15 4 16 5 17 6 18 35 19 2 20 1 21 19 22
REMARK SMILES IDX 20 24 21 25 32 26 22 27 31 28 23 29 24 30 25 31 30 32 26 33
REMARK SMILES IDX 29 34 27 35 28 36
REMARK H PARENT 19 23
ROOT
ATOM      1  N   UNL     1       0.554  14.251   4.414  1.00  0.00    -0.293 N 
ATOM      2  C   UNL     1       0.745  12.878   4.441  1.00  0.00     0.252 A 
ATOM      3  O   UNL     1       1.795  12.328   4.764  1.00  0.00    -0.269 OA
ATOM      4  C   UNL     1      -0.403  12.025   4.040  1.00  0.00     0.072 A 
ATOM      5  C   UNL     1      -1.564  12.553   3.640  1.00  0.00     0.019 A 
ATOM      6  C   UNL     1      -1.704  13.998   3.603  1.00  0.00     0.036 A 
ATOM      7  C   UNL     1      -2.848  14.638   3.191  1.00  0.00     0.127 A 
ATOM      8  N   UNL     1      -2.981  15.977   3.152  1.00  0.00    -0.221 NA
ATOM      9  C   UNL     1      -1.936  16.714   3.546  1.00  0.00     0.229 A 
ATOM     10  N   UNL     1      -0.780  16.179   3.969  1.00  0.00    -0.194 NA
ATOM     11  C   UNL     1      -0.672  14.834   3.989  1.00  0.00     0.148 A 
ENDROOT
BRANCH   1  12
ATOM     12  C   UNL     1       1.651  15.135   4.804  1.00  0.00     0.128 C 
BRANCH  12  13
ATOM     13  C   UNL     1       2.807  14.414   5.507  1.00  0.00     0.029 C 
BRANCH  13  14
ATOM     14  C   UNL     1       3.111  15.002   6.889  1.00  0.00     0.030 C 
ATOM     15  C   UNL     1       0.663  17.124   7.291  1.00  0.00     0.245 C 
ATOM     16  O   UNL     1       0.624  18.045   6.480  1.00  0.00    -0.270 OA
ATOM     17  N   UNL     1       1.803  16.437   7.611  1.00  0.00    -0.338 N 
ATOM     18  C   UNL     1       3.087  16.541   6.927  1.00  0.00     0.125 C 
ATOM     19  C   UNL     1       1.968  15.020   7.923  1.00  0.00     0.125 C 
BRANCH  15  20
ATOM     20  C   UNL     1      -0.593  16.695   7.959  1.00  0.00     0.063 C 
ATOM     21  C   UNL     1      -1.371  15.703   7.510  1.00  0.00     0.014 C 
ENDBRANCH  15  20
ENDBRANCH  13  14
ENDBRANCH  12  13
ENDBRANCH   1  12
BRANCH   9  22
ATOM     22  N   UNL     1      -1.967  18.105   3.548  1.00  0.00    -0.324 N 
ATOM     23  H   UNL     1      -1.234  18.448   4.151  1.00  0.00     0.170 HD
BRANCH  22  24
ATOM     24  C   UNL     1      -2.674  19.064   2.815  1.00  0.00     0.041 A 
ATOM     25  C   UNL     1      -2.074  20.315   2.599  1.00  0.00     0.026 A 
ATOM     26  C   UNL     1      -3.958  18.872   2.303  1.00  0.00     0.026 A 
ATOM     27  C   UNL     1      -2.723  21.323   1.876  1.00  0.00     0.006 A 
ATOM     28  C   UNL     1      -4.613  19.877   1.579  1.00  0.00     0.006 A 
ATOM     29  C   UNL     1      -4.001  21.115   1.350  1.00  0.00    -0.045 A 
BRANCH  29  30
ATOM     30  C   UNL     1      -4.682  22.213   0.553  1.00  0.00     0.022 C 
ATOM     31  C   UNL     1      -3.968  22.523  -0.779  1.00  0.00     0.024 C 
ATOM     32  C   UNL     1      -6.180  21.931   0.351  1.00  0.00     0.024 C 
ATOM     33  C   UNL     1      -4.748  22.017  -1.992  1.00  0.00     0.085 C 
ATOM     34  C   UNL     1      -6.733  22.814  -0.764  1.00  0.00     0.085 C 
ATOM     35  N   UNL     1      -6.130  22.505  -2.067  1.00  0.00    -0.306 NA
ATOM     36  C   UNL     1      -6.268  23.635  -2.983  1.00  0.00     0.105 C 
ENDBRANCH  29  30
ENDBRANCH  22  24
ENDBRANCH   9  22
TORSDOF 7
ENDMDL
MODEL 5
REMARK minimizedAffinity -9.16895485
REMARK CNNscore 0.523019552
REMARK CNNaffinity 7.62446213
REMARK SMILES C=CC(=O)N1CC(CCn2c(=O)ccc3cnc(Nc4ccc(C5CCN(C)CC5)cc4)nc32)C1
REMARK SMILES IDX 10 1 11 2 12 3 13 4 14 5 15 6 16 7 17 8 18 9 33 10 34 11
REMARK SMILES IDX 9 12 8 13 7 14 3 15 4 16 5 17 6 18 35 19 2 20 1 21 19 22
REMARK SMILES IDX 20 24 21 25 32 26 22 27 31 28 23 29 24 30 25 31 30 32 26 33
REMARK SMILES IDX 29 34 27 35 28 36
REMARK H PARENT 19 23
ROOT
ATOM      1  N   UNL     1       0.344  14.279   4.273  1.00  0.00    -0.293 N 
ATOM      2  C   UNL     1       0.829  13.001   4.502  1.00  0.00     0.252 A 
ATOM      3  O   UNL     1       1.969  12.748   4.886  1.00  0.00    -0.269 OA
ATOM      4  C   UNL     1      -0.098  11.868   4.253  1.00  0.00     0.072 A 
ATOM      5  C   UNL     1      -1.340  12.064   3.797  1.00  0.00     0.019 A 
ATOM      6  C   UNL     1      -1.791  13.421   3.548  1.00  0.00     0.036 A 
ATOM      7  C   UNL     1      -3.040  13.727   3.064  1.00  0.00     0.127 A 
ATOM      8  N   UNL     1      -3.462  14.984   2.827  1.00  0.00    -0.221 NA
ATOM      9  C   UNL     1      -2.609  15.982   3.089  1.00  0.00     0.229 A 
ATOM     10  N   UNL     1      -1.372  15.780   3.567  1.00  0.00    -0.194 NA
ATOM     11  C   UNL     1      -0.973  14.510   3.786  1.00  0.00     0.148 A 
ENDROOT
BRANCH   1  12
ATOM     12  C   UNL     1       1.215  15.429   4.508  1.00  0.00     0.128 C 
BRANCH  12  13
ATOM     13  C   UNL     1       1.759  15.511   5.939  1.00  0.00     0.029 C 
BRANCH  13  14
ATOM     14  C   UNL     1       3.279  15.331   5.999  1.00  0.00     0.030 C 
ATOM     15  C   UNL     1       4.280  18.256   7.051  1.00  0.00     0.245 C 
ATOM     16  O   UNL     1       4.033  19.198   6.303  1.00  0.00    -0.270 OA
ATOM     17  N   UNL     1       4.396  16.958   6.630  1.00  0.00    -0.338 N 
ATOM     18  C   UNL     1       4.066  16.455   5.301  1.00  0.00     0.125 C 
ATOM     19  C   UNL     1       3.992  15.730   7.307  1.00  0.00     0.125 C 
BRANCH  15  20
ATOM     20  C   UNL     1       4.441  18.510   8.506  1.00  0.00     0.063 C 
ATOM     21  C   UNL     1       5.626  18.536   9.128  1.00  0.00     0.014 C 
ENDBRANCH  15  20
ENDBRANCH  13  14
ENDBRANCH  12  13
ENDBRANCH   1  12
BRANCH   9  22
ATOM     22  N   UNL     1      -2.944  17.316   2.884  1.00  0.00    -0.324 N 
ATOM     23  H   UNL     1      -3.843  17.362   2.429  1.00  0.00     0.170 HD
BRANCH  22  24
ATOM     24  C   UNL     1      -2.385  18.533   3.288  1.00  0.00     0.041 A 
ATOM     25  C   UNL     1      -1.554  18.545   4.419  1.00  0.00     0.026 A 
ATOM     26  C   UNL     1      -2.621  19.754   2.653  1.00  0.00     0.026 A 
ATOM     27  C   UNL     1      -0.963  19.726   4.882  1.00  0.00     0.006 A 
ATOM     28  C   UNL     1      -2.032  20.940   3.111  1.00  0.00     0.006 A 
ATOM     29  C   UNL     1      -1.189  20.942   4.228  1.00  0.00    -0.045 A 
BRANCH  29  30
ATOM     30  C   UNL     1      -0.524  22.210   4.732  1.00  0.00     0.022 C 
ATOM     31  C   UNL     1      -1.470  23.094   5.571  1.00  0.00     0.024 C 
ATOM     32  C   UNL     1       0.792  21.913   5.469  1.00  0.00     0.024 C 
ATOM     33  C   UNL     1      -1.128  23.066   7.061  1.00  0.00     0.085 C 
ATOM     34  C   UNL     1       1.215  23.127   6.293  1.00  0.00     0.085 C 
ATOM     35  N   UNL     1       0.260  23.428   7.368  1.00  0.00    -0.306 NA
ATOM     36  C   UNL     1       0.387  24.817   7.800  1.00  0.00     0.105 C 
ENDBRANCH  29  30
ENDBRANCH  22  24
ENDBRANCH   9  22
TORSDOF 7
ENDMDL
MODEL 6
REMARK minimizedAffinity -9.05127048
REMARK CNNscore 0.35505569
REMARK CNNaffinity 7.28704882
REMARK SMILES C=CC(=O)N1CC(CCn2c(=O)ccc3cnc(Nc4ccc(C5CCN(C)CC5)cc4)nc32)C1
REMARK SMILES IDX 10 1 11 2 12 3 13 4 14 5 15 6 16 7 17 8 18 9 33 10 34 11
REMARK SMILES IDX 9 12 8 13 7 14 3 15 4 16 5 17 6 18 35 19 2 20 1 21 19 22
REMARK SMILES IDX 20 24 21 25 32 26 22 27 31 28 23 29 24 30 25 31 30 32 26 33
REMARK SMILES IDX 29 34 27 35 28 36
REMARK H PARENT 19 23
ROOT
ATOM      1  N   UNL     1       0.112  14.528   4.242  1.00  0.00    -0.293 N 
ATOM      2  C   UNL     1       0.081  13.143   4.203  1.00  0.00     0.252 A 
ATOM      3  O   UNL     1       1.019  12.416   4.522  1.00  0.00    -0.269 OA
ATOM      4  C   UNL     1      -1.175  12.506   3.730  1.00  0.00     0.072 A 
ATOM      5  C   UNL     1      -2.224  13.232   3.330  1.00  0.00     0.019 A 
ATOM      6  C   UNL     1      -2.129  14.681   3.365  1.00  0.00     0.036 A 
ATOM      7  C   UNL     1      -3.143  15.515   2.959  1.00  0.00     0.127 A 
ATOM      8  N   UNL     1      -3.060  16.859   2.986  1.00  0.00    -0.221 NA
ATOM      9  C   UNL     1      -1.923  17.398   3.443  1.00  0.00     0.229 A 
ATOM     10  N   UNL     1      -0.882  16.664   3.865  1.00  0.00    -0.194 NA
ATOM     11  C   UNL     1      -0.990  15.320   3.818  1.00  0.00     0.148 A 
ENDROOT
BRANCH   1  12
ATOM     12  C   UNL     1       1.323  15.204   4.705  1.00  0.00     0.128 C 
BRANCH  12  13
ATOM     13  C   UNL     1       2.187  14.354   5.643  1.00  0.00     0.029 C 
BRANCH  13  14
ATOM     14  C   UNL     1       2.184  14.882   7.082  1.00  0.00     0.030 C 
ATOM     15  C   UNL     1       3.283  17.933   6.701  1.00  0.00     0.245 C 
ATOM     16  O   UNL     1       4.423  18.031   6.257  1.00  0.00    -0.270 OA
ATOM     17  N   UNL     1       2.817  16.833   7.371  1.00  0.00    -0.338 N 
ATOM     18  C   UNL     1       3.505  15.553   7.499  1.00  0.00     0.125 C 
ATOM     19  C   UNL     1       1.487  16.232   7.344  1.00  0.00     0.125 C 
BRANCH  15  20
ATOM     20  C   UNL     1       2.325  19.049   6.489  1.00  0.00     0.063 C 
ATOM     21  C   UNL     1       2.251  20.124   7.283  1.00  0.00     0.014 C 
ENDBRANCH  15  20
ENDBRANCH  13  14
ENDBRANCH  12  13
ENDBRANCH   1  12
BRANCH   9  22
ATOM     22  N   UNL     1      -1.732  18.774   3.517  1.00  0.00    -0.324 N 
ATOM     23  H   UNL     1      -0.754  18.961   3.678  1.00  0.00     0.170 HD
BRANCH  22  24
ATOM     24  C   UNL     1      -2.550  19.885   3.282  1.00  0.00     0.041 A 
ATOM     25  C   UNL     1      -3.609  19.754   2.371  1.00  0.00     0.026 A 
ATOM     26  C   UNL     1      -2.366  21.134   3.877  1.00  0.00     0.026 A 
ATOM     27  C   UNL     1      -4.466  20.824   2.086  1.00  0.00     0.006 A 
ATOM     28  C   UNL     1      -3.220  22.209   3.596  1.00  0.00     0.006 A 
ATOM     29  C   UNL     1      -4.287  22.067   2.701  1.00  0.00    -0.045 A 
BRANCH  29  30
ATOM     30  C   UNL     1      -5.237  23.210   2.394  1.00  0.00     0.022 C 
ATOM     31  C   UNL     1      -5.290  23.564   0.894  1.00  0.00     0.024 C 
ATOM     32  C   UNL     1      -6.638  22.964   2.978  1.00  0.00     0.024 C 
ATOM     33  C   UNL     1      -6.598  23.125   0.235  1.00  0.00     0.085 C 
ATOM     34  C   UNL     1      -7.649  23.904   2.326  1.00  0.00     0.085 C 
ATOM     35  N   UNL     1      -7.805  23.641   0.890  1.00  0.00    -0.306 NA
ATOM     36  C   UNL     1      -8.349  24.811   0.204  1.00  0.00     0.105 C 
ENDBRANCH  29  30
ENDBRANCH  22  24
ENDBRANCH   9  22
TORSDOF 7
ENDMDL
MODEL 7
REMARK minimizedAffinity -8.67267799
REMARK CNNscore 0.230756894
REMARK CNNaffinity 7.29046202
REMARK SMILES C=CC(=O)N1CC(CCn2c(=O)ccc3cnc(Nc4ccc(C5CCN(C)CC5)cc4)nc32)C1
REMARK SMILES IDX 10 1 11 2 12 3 13 4 14 5 15 6 16 7 17 8 18 9 33 10 34 11
REMARK SMILES IDX 9 12 8 13 7 14 3 15 4 16 5 17 6 18 35 19 2 20 1 21 19 22
REMARK SMILES IDX 20 24 21 25 32 26 22 27 31 28 23 29 24 30 25 31 30 32 26 33
REMARK SMILES IDX 29 34 27 35 28 36
REMARK H PARENT 19 23
ROOT
ATOM      1  N   UNL     1       1.296  16.189   6.282  1.00  0.00    -0.293 N 
ATOM      2  C   UNL     1       2.463  15.740   6.877  1.00  0.00     0.252 A 
ATOM      3  O   UNL     1       3.143  16.398   7.661  1.00  0.00    -0.269 OA
ATOM      4  C   UNL     1       2.920  14.371   6.527  1.00  0.00     0.072 A 
ATOM      5  C   UNL     1       2.254  13.610   5.652  1.00  0.00     0.019 A 
ATOM      6  C   UNL     1       1.050  14.139   5.036  1.00  0.00     0.036 A 
ATOM      7  C   UNL     1       0.306  13.444   4.112  1.00  0.00     0.127 A 
ATOM      8  N   UNL     1      -0.809  13.931   3.535  1.00  0.00    -0.221 NA
ATOM      9  C   UNL     1      -1.206  15.158   3.894  1.00  0.00     0.229 A 
ATOM     10  N   UNL     1      -0.546  15.908   4.790  1.00  0.00    -0.194 NA
ATOM     11  C   UNL     1       0.573  15.398   5.346  1.00  0.00     0.148 A 
ENDROOT
BRANCH   1  12
ATOM     12  C   UNL     1       0.800  17.528   6.596  1.00  0.00     0.128 C 
BRANCH  12  13
ATOM     13  C   UNL     1       1.731  18.656   6.139  1.00  0.00     0.029 C 
BRANCH  13  14
ATOM     14  C   UNL     1       1.788  19.813   7.142  1.00  0.00     0.030 C 
ATOM     15  C   UNL     1       3.999  21.796   5.786  1.00  0.00     0.245 C 
ATOM     16  O   UNL     1       5.129  21.327   5.673  1.00  0.00    -0.270 OA
ATOM     17  N   UNL     1       3.086  21.369   6.712  1.00  0.00    -0.338 N 
ATOM     18  C   UNL     1       3.217  20.195   7.568  1.00  0.00     0.125 C 
ATOM     19  C   UNL     1       1.637  21.244   6.588  1.00  0.00     0.125 C 
BRANCH  15  20
ATOM     20  C   UNL     1       3.566  22.871   4.856  1.00  0.00     0.063 C 
ATOM     21  C   UNL     1       4.192  23.157   3.708  1.00  0.00     0.014 C 
ENDBRANCH  15  20
ENDBRANCH  13  14
ENDBRANCH  12  13
ENDBRANCH   1  12
BRANCH   9  22
ATOM     22  N   UNL     1      -2.344  15.755   3.362  1.00  0.00    -0.324 N 
ATOM     23  H   UNL     1      -3.057  15.051   3.241  1.00  0.00     0.170 HD
BRANCH  22  24
ATOM     24  C   UNL     1      -2.724  17.078   3.112  1.00  0.00     0.041 A 
ATOM     25  C   UNL     1      -3.921  17.310   2.417  1.00  0.00     0.026 A 
ATOM     26  C   UNL     1      -1.973  18.193   3.486  1.00  0.00     0.026 A 
ATOM     27  C   UNL     1      -4.362  18.607   2.130  1.00  0.00     0.006 A 
ATOM     28  C   UNL     1      -2.409  19.495   3.202  1.00  0.00     0.006 A 
ATOM     29  C   UNL     1      -3.614  19.720   2.526  1.00  0.00    -0.045 A 
BRANCH  29  30
ATOM     30  C   UNL     1      -4.117  21.120   2.223  1.00  0.00     0.022 C 
ATOM     31  C   UNL     1      -4.432  21.337   0.729  1.00  0.00     0.024 C 
ATOM     32  C   UNL     1      -5.298  21.512   3.126  1.00  0.00     0.024 C 
ATOM     33  C   UNL     1      -5.934  21.411   0.454  1.00  0.00     0.085 C 
ATOM     34  C   UNL     1      -6.022  22.722   2.542  1.00  0.00     0.085 C 
ATOM     35  N   UNL     1      -6.642  22.425   1.244  1.00  0.00    -0.306 NA
ATOM     36  C   UNL     1      -6.875  23.653   0.487  1.00  0.00     0.105 C 
ENDBRANCH  29  30
ENDBRANCH  22  24
ENDBRANCH   9  22
TORSDOF 7
ENDMDL
MODEL 8
REMARK minimizedAffinity -9.06828213
REMARK CNNscore 0.196165442
REMARK CNNaffinity 6.90845871
REMARK SMILES C=CC(=O)N1CC(CCn2c(=O)ccc3cnc(Nc4ccc(C5CCN(C)CC5)cc4)nc32)C1
REMARK SMILES IDX 10 1 11 2 12 3 13 4 14 5 15 6 16 7 17 8 18 9 33 10 34 11
REMARK SMILES IDX 9 12 8 13 7 14 3 15 4 16 5 17 6 18 35 19 2 20 1 21 19 22
REMARK SMILES IDX 20 24 21 25 32 26 22 27 31 28 23 29 24 30 25 31 30 32 26 33
REMARK SMILES IDX 29 34 27 35 28 36
REMARK H PARENT 19 23
ROOT
ATOM      1  N   UNL     1       0.631  14.722   4.548  1.00  0.00    -0.293 N 
ATOM      2  C   UNL     1       0.827  13.351   4.520  1.00  0.00     0.252 A 
ATOM      3  O   UNL     1       1.860  12.788   4.874  1.00  0.00    -0.269 OA
ATOM      4  C   UNL     1      -0.291  12.515   4.012  1.00  0.00     0.072 A 
ATOM      5  C   UNL     1      -1.431  13.059   3.572  1.00  0.00     0.019 A 
ATOM      6  C   UNL     1      -1.576  14.504   3.599  1.00  0.00     0.036 A 
ATOM      7  C   UNL     1      -2.698  15.160   3.153  1.00  0.00     0.127 A 
ATOM      8  N   UNL     1      -2.836  16.500   3.172  1.00  0.00    -0.221 NA
ATOM      9  C   UNL     1      -1.819  17.219   3.661  1.00  0.00     0.229 A 
ATOM     10  N   UNL     1      -0.686  16.666   4.122  1.00  0.00    -0.194 NA
ATOM     11  C   UNL     1      -0.572  15.322   4.083  1.00  0.00     0.148 A 
ENDROOT
BRANCH   1  12
ATOM     12  C   UNL     1       1.699  15.589   5.043  1.00  0.00     0.128 C 
BRANCH  12  13
ATOM     13  C   UNL     1       2.381  15.066   6.312  1.00  0.00     0.029 C 
BRANCH  13  14
ATOM     14  C   UNL     1       3.905  15.220   6.265  1.00  0.00     0.030 C 
ATOM     15  C   UNL     1       4.307  18.367   7.036  1.00  0.00     0.245 C 
ATOM     16  O   UNL     1       3.814  19.170   6.248  1.00  0.00    -0.270 OA
ATOM     17  N   UNL     1       4.677  17.093   6.695  1.00  0.00    -0.338 N 
ATOM     18  C   UNL     1       4.382  16.424   5.433  1.00  0.00     0.125 C 
ATOM     19  C   UNL     1       4.594  15.868   7.483  1.00  0.00     0.125 C 
BRANCH  15  20
ATOM     20  C   UNL     1       4.499  18.768   8.453  1.00  0.00     0.063 C 
ATOM     21  C   UNL     1       5.635  18.572   9.133  1.00  0.00     0.014 C 
ENDBRANCH  15  20
ENDBRANCH  13  14
ENDBRANCH  12  13
ENDBRANCH   1  12
BRANCH   9  22
ATOM     22  N   UNL     1      -1.858  18.608   3.729  1.00  0.00    -0.324 N 
ATOM     23  H   UNL     1      -1.238  18.917   4.463  1.00  0.00     0.170 HD
BRANCH  22  24
ATOM     24  C   UNL     1      -2.437  19.606   2.939  1.00  0.00     0.041 A 
ATOM     25  C   UNL     1      -3.771  19.446   2.531  1.00  0.00     0.026 A 
ATOM     26  C   UNL     1      -1.765  20.747   2.499  1.00  0.00     0.026 A 
ATOM     27  C   UNL     1      -4.414  20.404   1.738  1.00  0.00     0.006 A 
ATOM     28  C   UNL     1      -2.403  21.710   1.705  1.00  0.00     0.006 A 
ATOM     29  C   UNL     1      -3.739  21.555   1.319  1.00  0.00    -0.045 A 
BRANCH  29  30
ATOM     30  C   UNL     1      -4.458  22.591   0.474  1.00  0.00     0.022 C 
ATOM     31  C   UNL     1      -4.074  22.525  -1.018  1.00  0.00     0.024 C 
ATOM     32  C   UNL     1      -5.980  22.543   0.681  1.00  0.00     0.024 C 
ATOM     33  C   UNL     1      -5.195  21.951  -1.885  1.00  0.00     0.085 C 
ATOM     34  C   UNL     1      -6.685  23.292  -0.447  1.00  0.00     0.085 C 
ATOM     35  N   UNL     1      -6.478  22.651  -1.753  1.00  0.00    -0.306 NA
ATOM     36  C   UNL     1      -6.703  23.602  -2.839  1.00  0.00     0.105 C 
ENDBRANCH  29  30
ENDBRANCH  22  24
ENDBRANCH   9  22
TORSDOF 7
ENDMDL
MODEL 9
REMARK minimizedAffinity -9.20720768
REMARK CNNscore 0.134163767
REMARK CNNaffinity 6.60669708
REMARK SMILES C=CC(=O)N1CC(CCn2c(=O)ccc3cnc(Nc4ccc(C5CCN(C)CC5)cc4)nc32)C1
REMARK SMILES IDX 10 1 11 2 12 3 13 4 14 5 15 6 16 7 17 8 18 9 33 10 34 11
REMARK SMILES IDX 9 12 8 13 7 14 3 15 4 16 5 17 6 18 35 19 2 20 1 21 19 22
REMARK SMILES IDX 20 24 21 25 32 26 22 27 31 28 23 29 24 30 25 31 30 32 26 33
REMARK SMILES IDX 29 34 27 35 28 36
REMARK H PARENT 19 23
ROOT
ATOM      1  N   UNL     1      -1.471  16.130   3.556  1.00  0.00    -0.293 N 
ATOM      2  C   UNL     1      -2.669  15.794   2.946  1.00  0.00     0.252 A 
ATOM      3  O   UNL     1      -3.494  16.608   2.537  1.00  0.00    -0.269 OA
ATOM      4  C   UNL     1      -2.970  14.348   2.791  1.00  0.00     0.072 A 
ATOM      5  C   UNL     1      -2.138  13.405   3.245  1.00  0.00     0.019 A 
ATOM      6  C   UNL     1      -0.907  13.811   3.901  1.00  0.00     0.036 A 
ATOM      7  C   UNL     1       0.004  12.921   4.418  1.00  0.00     0.127 A 
ATOM      8  N   UNL     1       1.144  13.291   5.030  1.00  0.00    -0.221 NA
ATOM      9  C   UNL     1       1.395  14.602   5.128  1.00  0.00     0.229 A 
ATOM     10  N   UNL     1       0.567  15.544   4.650  1.00  0.00    -0.194 NA
ATOM     11  C   UNL     1      -0.573  15.144   4.049  1.00  0.00     0.148 A 
ENDROOT
BRANCH   1  12
ATOM     12  C   UNL     1      -1.125  17.540   3.728  1.00  0.00     0.128 C 
BRANCH  12  13
ATOM     13  C   UNL     1      -2.341  18.468   3.829  1.00  0.00     0.029 C 
BRANCH  13  14
ATOM     14  C   UNL     1      -1.963  19.947   3.705  1.00  0.00     0.030 C 
ATOM     15  C   UNL     1      -4.750  21.288   2.657  1.00  0.00     0.245 C 
ATOM     16  O   UNL     1      -5.144  20.897   1.562  1.00  0.00    -0.270 OA
ATOM     17  N   UNL     1      -3.441  21.246   3.056  1.00  0.00    -0.338 N 
ATOM     18  C   UNL     1      -2.352  20.575   2.354  1.00  0.00     0.125 C 
ATOM     19  C   UNL     1      -2.889  20.978   4.380  1.00  0.00     0.125 C 
BRANCH  15  20
ATOM     20  C   UNL     1      -5.736  21.816   3.635  1.00  0.00     0.063 C 
ATOM     21  C   UNL     1      -6.811  22.536   3.290  1.00  0.00     0.014 C 
ENDBRANCH  15  20
ENDBRANCH  13  14
ENDBRANCH  12  13
ENDBRANCH   1  12
BRANCH   9  22
ATOM     22  N   UNL     1       2.544  15.094   5.738  1.00  0.00    -0.324 N 
ATOM     23  H   UNL     1       3.258  14.381   5.716  1.00  0.00     0.170 HD
BRANCH  22  24
ATOM     24  C   UNL     1       2.932  16.350   6.216  1.00  0.00     0.041 A 
ATOM     25  C   UNL     1       2.184  17.473   5.828  1.00  0.00     0.026 A 
ATOM     26  C   UNL     1       4.039  16.570   7.037  1.00  0.00     0.026 A 
ATOM     27  C   UNL     1       2.515  18.761   6.266  1.00  0.00     0.006 A 
ATOM     28  C   UNL     1       4.376  17.857   7.478  1.00  0.00     0.006 A 
ATOM     29  C   UNL     1       3.614  18.970   7.105  1.00  0.00    -0.045 A 
BRANCH  29  30
ATOM     30  C   UNL     1       3.948  20.371   7.585  1.00  0.00     0.022 C 
ATOM     31  C   UNL     1       4.665  20.386   8.950  1.00  0.00     0.024 C 
ATOM     32  C   UNL     1       4.715  21.174   6.522  1.00  0.00     0.024 C 
ATOM     33  C   UNL     1       6.145  20.748   8.829  1.00  0.00     0.085 C 
ATOM     34  C   UNL     1       5.373  22.393   7.162  1.00  0.00     0.085 C 
ATOM     35  N   UNL     1       6.400  22.019   8.143  1.00  0.00    -0.306 NA
ATOM     36  C   UNL     1       6.647  23.113   9.078  1.00  0.00     0.105 C 
ENDBRANCH  29  30
ENDBRANCH  22  24
ENDBRANCH   9  22
TORSDOF 7
ENDMDL
