MODEL 1
REMARK minimizedAffinity -5.93103027
REMARK CNNscore 0.734911442
REMARK CNNaffinity 6.10932159
REMARK SMILES CCN(OCCN1CCNCC1)C(=O)c1ccc(N/C(=C2\C(=O)Nc3cc(C(=O)OC)c(C)cc32)c2ccccc2)cc1
REMARK SMILES IDX 13 1 14 2 3 3 2 4 1 5 4 6 5 7 6 8 7 9 8 10 12 11 9 12 11 13
REMARK SMILES IDX 10 14 15 16 16 17 43 18 17 19 42 20 18 21 19 22 20 24 21 25
REMARK SMILES IDX 22 26 35 27 23 28 24 29 34 30 25 31 32 32 26 33 27 34 33 36
REMARK SMILES IDX 36 37 37 38 41 39 38 40 40 41 39 42 28 43 29 44 30 45 31 46
REMARK H PARENT 10 15 19 23 24 35
ROOT
ATOM      1  C   UNL     1      21.049 -14.616  14.898  1.00  0.00     0.277 C 
ATOM      2  O   UNL     1      21.295 -15.739  14.459  1.00  0.00    -0.267 OA
ENDROOT
BRANCH   1   3
ATOM      3  N   UNL     1      20.355 -13.631  14.211  1.00  0.00    -0.218 N 
BRANCH   3   4
ATOM      4  C   UNL     1      20.478 -13.221  12.814  1.00  0.00     0.150 C 
ATOM      5  C   UNL     1      20.874 -11.760  12.650  1.00  0.00     0.030 C 
ENDBRANCH   3   4
BRANCH   3   6
ATOM      6  O   UNL     1      19.032 -13.447  14.693  1.00  0.00    -0.269 OA
BRANCH   6   7
ATOM      7  C   UNL     1      18.107 -14.056  13.786  1.00  0.00     0.209 C 
BRANCH   7   8
ATOM      8  C   UNL     1      16.654 -13.684  14.141  1.00  0.00     0.116 C 
BRANCH   8   9
ATOM      9  N   UNL     1      15.917 -12.739  13.284  1.00  0.00    -0.298 NA
ATOM     10  C   UNL     1      15.238 -11.660  14.016  1.00  0.00     0.100 C 
ATOM     11  C   UNL     1      16.744 -12.196  12.188  1.00  0.00     0.100 C 
ATOM     12  C   UNL     1      14.439 -10.739  13.062  1.00  0.00     0.096 C 
ATOM     13  C   UNL     1      15.937 -11.252  11.268  1.00  0.00     0.096 C 
ATOM     14  N   UNL     1      15.276 -10.151  12.000  1.00  0.00    -0.314 NA
ATOM     15  H   UNL     1      16.009  -9.604  12.450  1.00  0.00     0.122 HD
ENDBRANCH   8   9
ENDBRANCH   7   8
ENDBRANCH   6   7
ENDBRANCH   3   6
ENDBRANCH   1   3
BRANCH   1  16
ATOM     16  C   UNL     1      21.407 -14.336  16.301  1.00  0.00     0.042 A 
ATOM     17  C   UNL     1      21.403 -15.345  17.262  1.00  0.00     0.016 A 
ATOM     18  C   UNL     1      21.714 -13.024  16.659  1.00  0.00     0.016 A 
ATOM     19  C   UNL     1      21.787 -15.050  18.575  1.00  0.00     0.027 A 
ATOM     20  C   UNL     1      22.078 -12.735  17.977  1.00  0.00     0.027 A 
ATOM     21  C   UNL     1      22.168 -13.751  18.942  1.00  0.00     0.038 A 
BRANCH  21  22
ATOM     22  N   UNL     1      22.539 -13.392  20.268  1.00  0.00    -0.354 N 
ATOM     23  H   UNL     1      22.203 -14.119  20.899  1.00  0.00     0.167 HD
BRANCH  22  24
ATOM     24  C   UNL     1      22.325 -12.129  20.815  1.00  0.00     0.059 C 
ATOM     25  C   UNL     1      23.214 -11.113  20.889  1.00  0.00     0.073 C 
ATOM     26  C   UNL     1      24.649 -11.245  20.417  1.00  0.00     0.258 C 
ATOM     27  C   UNL     1      23.084  -9.745  21.436  1.00  0.00     0.013 A 
ATOM     28  O   UNL     1      25.218 -12.188  19.907  1.00  0.00    -0.269 OA
ATOM     29  N   UNL     1      25.236 -10.022  20.704  1.00  0.00    -0.321 N 
ATOM     30  C   UNL     1      22.044  -9.010  21.984  1.00  0.00     0.015 A 
ATOM     31  C   UNL     1      24.338  -9.147  21.300  1.00  0.00     0.050 A 
ATOM     32  C   UNL     1      22.278  -7.689  22.431  1.00  0.00    -0.036 A 
ATOM     33  C   UNL     1      24.611  -7.855  21.703  1.00  0.00     0.042 A 
ATOM     34  C   UNL     1      23.570  -7.111  22.284  1.00  0.00     0.065 A 
ATOM     35  H   UNL     1      26.204  -9.835  20.498  1.00  0.00     0.170 HD
ATOM     36  C   UNL     1      21.123  -6.940  23.047  1.00  0.00     0.045 C 
BRANCH  24  37
ATOM     37  C   UNL     1      20.992 -12.003  21.444  1.00  0.00    -0.001 A 
ATOM     38  C   UNL     1      20.757 -11.007  22.402  1.00  0.00     0.010 A 
ATOM     39  C   UNL     1      19.941 -12.853  21.062  1.00  0.00     0.010 A 
ATOM     40  C   UNL     1      19.498 -10.880  22.992  1.00  0.00     0.001 A 
ATOM     41  C   UNL     1      18.683 -12.720  21.652  1.00  0.00     0.001 A 
ATOM     42  C   UNL     1      18.464 -11.737  22.618  1.00  0.00     0.000 A 
ENDBRANCH  24  37
BRANCH  34  43
ATOM     43  C   UNL     1      23.838  -5.707  22.724  1.00  0.00     0.338 C 
ATOM     44  O   UNL     1      23.775  -4.729  21.999  1.00  0.00    -0.246 OA
BRANCH  43  45
ATOM     45  O   UNL     1      24.131  -5.690  24.051  1.00  0.00    -0.465 OA
ATOM     46  C   UNL     1      24.329  -4.379  24.583  1.00  0.00     0.282 C 
ENDBRANCH  43  45
ENDBRANCH  34  43
ENDBRANCH  22  24
ENDBRANCH  21  22
ENDBRANCH   1  16
TORSDOF 12
ENDMDL
MODEL 2
REMARK minimizedAffinity -6.71893311
REMARK CNNscore 0.57108587
REMARK CNNaffinity 5.98720741
REMARK SMILES CCN(OCCN1CCNCC1)C(=O)c1ccc(N/C(=C2\C(=O)Nc3cc(C(=O)OC)c(C)cc32)c2ccccc2)cc1
REMARK SMILES IDX 13 1 14 2 3 3 2 4 1 5 4 6 5 7 6 8 7 9 8 10 12 11 9 12 11 13
REMARK SMILES IDX 10 14 15 16 16 17 43 18 17 19 42 20 18 21 19 22 20 24 21 25
REMARK SMILES IDX 22 26 35 27 23 28 24 29 34 30 25 31 32 32 26 33 27 34 33 36
REMARK SMILES IDX 36 37 37 38 41 39 38 40 40 41 39 42 28 43 29 44 30 45 31 46
REMARK H PARENT 10 15 19 23 24 35
ROOT
ATOM      1  C   UNL     1      37.373  -1.813   0.540  1.00  0.00     0.277 C 
ATOM      2  O   UNL     1      36.395  -2.135   1.212  1.00  0.00    -0.267 OA
ENDROOT
BRANCH   1   3
ATOM      3  N   UNL     1      37.895  -2.558  -0.507  1.00  0.00    -0.218 N 
BRANCH   3   4
ATOM      4  C   UNL     1      38.657  -3.804  -0.461  1.00  0.00     0.150 C 
ATOM      5  C   UNL     1      39.452  -3.974   0.826  1.00  0.00     0.030 C 
ENDBRANCH   3   4
BRANCH   3   6
ATOM      6  O   UNL     1      37.121  -2.464  -1.694  1.00  0.00    -0.269 OA
BRANCH   6   7
ATOM      7  C   UNL     1      37.569  -3.448  -2.632  1.00  0.00     0.209 C 
BRANCH   7   8
ATOM      8  C   UNL     1      36.378  -4.119  -3.346  1.00  0.00     0.116 C 
BRANCH   8   9
ATOM      9  N   UNL     1      35.809  -5.361  -2.796  1.00  0.00    -0.298 NA
ATOM     10  C   UNL     1      34.769  -5.152  -1.779  1.00  0.00     0.100 C 
ATOM     11  C   UNL     1      35.346  -6.291  -3.844  1.00  0.00     0.100 C 
ATOM     12  C   UNL     1      34.255  -6.495  -1.205  1.00  0.00     0.096 C 
ATOM     13  C   UNL     1      34.805  -7.611  -3.248  1.00  0.00     0.096 C 
ATOM     14  N   UNL     1      33.739  -7.403  -2.246  1.00  0.00    -0.314 NA
ATOM     15  H   UNL     1      32.969  -6.929  -2.716  1.00  0.00     0.122 HD
ENDBRANCH   8   9
ENDBRANCH   7   8
ENDBRANCH   6   7
ENDBRANCH   3   6
ENDBRANCH   1   3
BRANCH   1  16
ATOM     16  C   UNL     1      37.960  -0.481   0.779  1.00  0.00     0.042 A 
ATOM     17  C   UNL     1      37.213   0.543   1.358  1.00  0.00     0.016 A 
ATOM     18  C   UNL     1      39.275  -0.253   0.376  1.00  0.00     0.016 A 
ATOM     19  C   UNL     1      37.815   1.782   1.605  1.00  0.00     0.027 A 
ATOM     20  C   UNL     1      39.862   0.993   0.611  1.00  0.00     0.027 A 
ATOM     21  C   UNL     1      39.158   2.012   1.273  1.00  0.00     0.038 A 
BRANCH  21  22
ATOM     22  N   UNL     1      39.810   3.260   1.478  1.00  0.00    -0.354 N 
ATOM     23  H   UNL     1      39.624   3.562   2.434  1.00  0.00     0.167 HD
BRANCH  22  24
ATOM     24  C   UNL     1      39.717   4.335   0.597  1.00  0.00     0.059 C 
ATOM     25  C   UNL     1      39.109   5.521   0.821  1.00  0.00     0.073 C 
ATOM     26  C   UNL     1      38.358   5.827   2.101  1.00  0.00     0.258 C 
ATOM     27  C   UNL     1      38.966   6.718  -0.038  1.00  0.00     0.013 A 
ATOM     28  O   UNL     1      38.194   5.143   3.091  1.00  0.00    -0.269 OA
ATOM     29  N   UNL     1      37.848   7.104   1.923  1.00  0.00    -0.321 N 
ATOM     30  C   UNL     1      39.432   7.078  -1.292  1.00  0.00     0.015 A 
ATOM     31  C   UNL     1      38.191   7.628   0.684  1.00  0.00     0.050 A 
ATOM     32  C   UNL     1      39.084   8.336  -1.836  1.00  0.00    -0.036 A 
ATOM     33  C   UNL     1      37.841   8.874   0.205  1.00  0.00     0.042 A 
ATOM     34  C   UNL     1      38.287   9.237  -1.077  1.00  0.00     0.065 A 
ATOM     35  H   UNL     1      37.292   7.559   2.630  1.00  0.00     0.170 HD
ATOM     36  C   UNL     1      39.590   8.670  -3.216  1.00  0.00     0.045 C 
BRANCH  24  37
ATOM     37  C   UNL     1      40.288   4.026  -0.733  1.00  0.00    -0.001 A 
ATOM     38  C   UNL     1      41.675   4.089  -0.935  1.00  0.00     0.010 A 
ATOM     39  C   UNL     1      39.455   3.633  -1.793  1.00  0.00     0.010 A 
ATOM     40  C   UNL     1      42.218   3.791  -2.186  1.00  0.00     0.001 A 
ATOM     41  C   UNL     1      40.004   3.333  -3.041  1.00  0.00     0.001 A 
ATOM     42  C   UNL     1      41.383   3.416  -3.237  1.00  0.00     0.000 A 
ENDBRANCH  24  37
BRANCH  34  43
ATOM     43  C   UNL     1      37.925  10.585  -1.617  1.00  0.00     0.338 C 
ATOM     44  O   UNL     1      38.643  11.568  -1.564  1.00  0.00    -0.246 OA
BRANCH  43  45
ATOM     45  O   UNL     1      36.696  10.534  -2.194  1.00  0.00    -0.465 OA
ATOM     46  C   UNL     1      36.695  10.868  -3.583  1.00  0.00     0.282 C 
ENDBRANCH  43  45
ENDBRANCH  34  43
ENDBRANCH  22  24
ENDBRANCH  21  22
ENDBRANCH   1  16
TORSDOF 12
ENDMDL
MODEL 3
REMARK minimizedAffinity -7.92414618
REMARK CNNscore 0.438658595
REMARK CNNaffinity 7.37255907
REMARK SMILES CCN(OCCN1CCNCC1)C(=O)c1ccc(N/C(=C2\C(=O)Nc3cc(C(=O)OC)c(C)cc32)c2ccccc2)cc1
REMARK SMILES IDX 13 1 14 2 3 3 2 4 1 5 4 6 5 7 6 8 7 9 8 10 12 11 9 12 11 13
REMARK SMILES IDX 10 14 15 16 16 17 43 18 17 19 42 20 18 21 19 22 20 24 21 25
REMARK SMILES IDX 22 26 35 27 23 28 24 29 34 30 25 31 32 32 26 33 27 34 33 36
REMARK SMILES IDX 36 37 37 38 41 39 38 40 40 41 39 42 28 43 29 44 30 45 31 46
REMARK H PARENT 10 15 19 23 24 35
ROOT
ATOM      1  C   UNL     1      18.360  -1.607 -13.771  1.00  0.00     0.277 C 
ATOM      2  O   UNL     1      18.013  -0.616 -14.412  1.00  0.00    -0.267 OA
ENDROOT
BRANCH   1   3
ATOM      3  N   UNL     1      17.576  -2.254 -12.827  1.00  0.00    -0.218 N 
BRANCH   3   4
ATOM      4  C   UNL     1      16.120  -2.346 -12.746  1.00  0.00     0.150 C 
ATOM      5  C   UNL     1      15.440  -0.991 -12.602  1.00  0.00     0.030 C 
ENDBRANCH   3   4
BRANCH   3   6
ATOM      6  O   UNL     1      18.203  -3.406 -12.282  1.00  0.00    -0.269 OA
BRANCH   6   7
ATOM      7  C   UNL     1      17.514  -3.801 -11.090  1.00  0.00     0.209 C 
BRANCH   7   8
ATOM      8  C   UNL     1      18.349  -4.807 -10.274  1.00  0.00     0.116 C 
BRANCH   8   9
ATOM      9  N   UNL     1      18.919  -4.395  -8.979  1.00  0.00    -0.298 NA
ATOM     10  C   UNL     1      17.988  -3.653  -8.117  1.00  0.00     0.100 C 
ATOM     11  C   UNL     1      19.542  -5.515  -8.247  1.00  0.00     0.100 C 
ATOM     12  C   UNL     1      18.666  -3.204  -6.800  1.00  0.00     0.096 C 
ATOM     13  C   UNL     1      20.183  -5.051  -6.919  1.00  0.00     0.096 C 
ATOM     14  N   UNL     1      19.240  -4.329  -6.038  1.00  0.00    -0.314 NA
ATOM     15  H   UNL     1      18.481  -4.972  -5.816  1.00  0.00     0.122 HD
ENDBRANCH   8   9
ENDBRANCH   7   8
ENDBRANCH   6   7
ENDBRANCH   3   6
ENDBRANCH   1   3
BRANCH   1  16
ATOM     16  C   UNL     1      19.651  -2.230 -14.118  1.00  0.00     0.042 A 
ATOM     17  C   UNL     1      20.052  -3.430 -13.534  1.00  0.00     0.016 A 
ATOM     18  C   UNL     1      20.486  -1.571 -15.019  1.00  0.00     0.016 A 
ATOM     19  C   UNL     1      21.266  -4.012 -13.916  1.00  0.00     0.027 A 
ATOM     20  C   UNL     1      21.705  -2.151 -15.381  1.00  0.00     0.027 A 
ATOM     21  C   UNL     1      22.090  -3.403 -14.874  1.00  0.00     0.038 A 
BRANCH  21  22
ATOM     22  N   UNL     1      23.345  -3.938 -15.277  1.00  0.00    -0.354 N 
ATOM     23  H   UNL     1      23.569  -4.720 -14.663  1.00  0.00     0.167 HD
BRANCH  22  24
ATOM     24  C   UNL     1      24.477  -3.161 -15.514  1.00  0.00     0.059 C 
ATOM     25  C   UNL     1      25.318  -2.645 -14.591  1.00  0.00     0.073 C 
ATOM     26  C   UNL     1      25.093  -2.802 -13.100  1.00  0.00     0.258 C 
ATOM     27  C   UNL     1      26.540  -1.824 -14.739  1.00  0.00     0.013 A 
ATOM     28  O   UNL     1      24.212  -3.387 -12.502  1.00  0.00    -0.269 OA
ATOM     29  N   UNL     1      26.130  -2.102 -12.503  1.00  0.00    -0.321 N 
ATOM     30  C   UNL     1      27.277  -1.360 -15.818  1.00  0.00     0.015 A 
ATOM     31  C   UNL     1      26.973  -1.527 -13.445  1.00  0.00     0.050 A 
ATOM     32  C   UNL     1      28.423  -0.564 -15.594  1.00  0.00    -0.036 A 
ATOM     33  C   UNL     1      28.095  -0.771 -13.175  1.00  0.00     0.042 A 
ATOM     34  C   UNL     1      28.833  -0.273 -14.263  1.00  0.00     0.065 A 
ATOM     35  H   UNL     1      26.221  -2.034 -11.502  1.00  0.00     0.170 HD
ATOM     36  C   UNL     1      29.175  -0.058 -16.799  1.00  0.00     0.045 C 
BRANCH  24  37
ATOM     37  C   UNL     1      24.648  -2.835 -16.948  1.00  0.00    -0.001 A 
ATOM     38  C   UNL     1      24.450  -1.521 -17.399  1.00  0.00     0.010 A 
ATOM     39  C   UNL     1      25.046  -3.824 -17.861  1.00  0.00     0.010 A 
ATOM     40  C   UNL     1      24.618  -1.209 -18.749  1.00  0.00     0.001 A 
ATOM     41  C   UNL     1      25.216  -3.505 -19.209  1.00  0.00     0.001 A 
ATOM     42  C   UNL     1      24.998  -2.200 -19.652  1.00  0.00     0.000 A 
ENDBRANCH  24  37
BRANCH  34  43
ATOM     43  C   UNL     1      30.057   0.544 -13.997  1.00  0.00     0.338 C 
ATOM     44  O   UNL     1      31.201   0.134 -14.098  1.00  0.00    -0.246 OA
BRANCH  43  45
ATOM     45  O   UNL     1      29.699   1.810 -13.656  1.00  0.00    -0.465 OA
ATOM     46  C   UNL     1      29.742   2.737 -14.742  1.00  0.00     0.282 C 
ENDBRANCH  43  45
ENDBRANCH  34  43
ENDBRANCH  22  24
ENDBRANCH  21  22
ENDBRANCH   1  16
TORSDOF 12
ENDMDL
MODEL 4
REMARK minimizedAffinity -6.62254286
REMARK CNNscore 0.268897444
REMARK CNNaffinity 5.77355337
REMARK SMILES CCN(OCCN1CCNCC1)C(=O)c1ccc(N/C(=C2\C(=O)Nc3cc(C(=O)OC)c(C)cc32)c2ccccc2)cc1
REMARK SMILES IDX 13 1 14 2 3 3 2 4 1 5 4 6 5 7 6 8 7 9 8 10 12 11 9 12 11 13
REMARK SMILES IDX 10 14 15 16 16 17 43 18 17 19 42 20 18 21 19 22 20 24 21 25
REMARK SMILES IDX 22 26 35 27 23 28 24 29 34 30 25 31 32 32 26 33 27 34 33 36
REMARK SMILES IDX 36 37 37 38 41 39 38 40 40 41 39 42 28 43 29 44 30 45 31 46
REMARK H PARENT 10 15 19 23 24 35
ROOT
ATOM      1  C   UNL     1      38.703   0.086   6.498  1.00  0.00     0.277 C 
ATOM      2  O   UNL     1      39.103  -0.811   5.758  1.00  0.00    -0.267 OA
ENDROOT
BRANCH   1   3
ATOM      3  N   UNL     1      38.210   1.309   6.066  1.00  0.00    -0.218 N 
BRANCH   3   4
ATOM      4  C   UNL     1      38.513   2.650   6.560  1.00  0.00     0.150 C 
ATOM      5  C   UNL     1      37.455   3.194   7.510  1.00  0.00     0.030 C 
ENDBRANCH   3   4
BRANCH   3   6
ATOM      6  O   UNL     1      37.894   1.321   4.682  1.00  0.00    -0.269 OA
BRANCH   6   7
ATOM      7  C   UNL     1      38.908   2.039   3.970  1.00  0.00     0.209 C 
BRANCH   7   8
ATOM      8  C   UNL     1      38.570   2.137   2.470  1.00  0.00     0.116 C 
BRANCH   8   9
ATOM      9  N   UNL     1      38.221   3.445   1.889  1.00  0.00    -0.298 NA
ATOM     10  C   UNL     1      38.513   4.592   2.761  1.00  0.00     0.100 C 
ATOM     11  C   UNL     1      38.792   3.643   0.543  1.00  0.00     0.100 C 
ATOM     12  C   UNL     1      38.071   5.926   2.113  1.00  0.00     0.096 C 
ATOM     13  C   UNL     1      38.368   4.997  -0.072  1.00  0.00     0.096 C 
ATOM     14  N   UNL     1      38.686   6.154   0.792  1.00  0.00    -0.314 NA
ATOM     15  H   UNL     1      39.697   6.167   0.920  1.00  0.00     0.122 HD
ENDBRANCH   8   9
ENDBRANCH   7   8
ENDBRANCH   6   7
ENDBRANCH   3   6
ENDBRANCH   1   3
BRANCH   1  16
ATOM     16  C   UNL     1      38.623  -0.202   7.943  1.00  0.00     0.042 A 
ATOM     17  C   UNL     1      37.414  -0.544   8.544  1.00  0.00     0.016 A 
ATOM     18  C   UNL     1      39.783  -0.086   8.708  1.00  0.00     0.016 A 
ATOM     19  C   UNL     1      37.384  -0.849   9.910  1.00  0.00     0.027 A 
ATOM     20  C   UNL     1      39.739  -0.375  10.074  1.00  0.00     0.027 A 
ATOM     21  C   UNL     1      38.551  -0.808  10.685  1.00  0.00     0.038 A 
BRANCH  21  22
ATOM     22  N   UNL     1      38.571  -1.082  12.081  1.00  0.00    -0.354 N 
ATOM     23  H   UNL     1      39.470  -0.775  12.451  1.00  0.00     0.167 HD
BRANCH  22  24
ATOM     24  C   UNL     1      38.203  -2.305  12.635  1.00  0.00     0.059 C 
ATOM     25  C   UNL     1      38.977  -3.405  12.768  1.00  0.00     0.073 C 
ATOM     26  C   UNL     1      40.400  -3.472  12.249  1.00  0.00     0.258 C 
ATOM     27  C   UNL     1      38.686  -4.736  13.346  1.00  0.00     0.013 A 
ATOM     28  O   UNL     1      41.066  -2.624  11.690  1.00  0.00    -0.269 OA
ATOM     29  N   UNL     1      40.827  -4.760  12.532  1.00  0.00    -0.321 N 
ATOM     30  C   UNL     1      37.597  -5.300  13.991  1.00  0.00     0.015 A 
ATOM     31  C   UNL     1      39.839  -5.503  13.164  1.00  0.00     0.050 A 
ATOM     32  C   UNL     1      37.655  -6.647  14.416  1.00  0.00    -0.036 A 
ATOM     33  C   UNL     1      39.950  -6.815  13.578  1.00  0.00     0.042 A 
ATOM     34  C   UNL     1      38.842  -7.404  14.210  1.00  0.00     0.065 A 
ATOM     35  H   UNL     1      41.748  -5.083  12.284  1.00  0.00     0.170 HD
ATOM     36  C   UNL     1      36.434  -7.226  15.087  1.00  0.00     0.045 C 
BRANCH  24  37
ATOM     37  C   UNL     1      36.770  -2.350  13.005  1.00  0.00    -0.001 A 
ATOM     38  C   UNL     1      35.830  -2.890  12.115  1.00  0.00     0.010 A 
ATOM     39  C   UNL     1      36.344  -1.888  14.261  1.00  0.00     0.010 A 
ATOM     40  C   UNL     1      34.480  -2.940  12.463  1.00  0.00     0.001 A 
ATOM     41  C   UNL     1      34.992  -1.945  14.605  1.00  0.00     0.001 A 
ATOM     42  C   UNL     1      34.062  -2.466  13.706  1.00  0.00     0.000 A 
ENDBRANCH  24  37
BRANCH  34  43
ATOM     43  C   UNL     1      38.939  -8.823  14.673  1.00  0.00     0.338 C 
ATOM     44  O   UNL     1      39.964  -9.357  15.060  1.00  0.00    -0.246 OA
BRANCH  43  45
ATOM     45  O   UNL     1      37.713  -9.408  14.622  1.00  0.00    -0.465 OA
ATOM     46  C   UNL     1      37.744 -10.829  14.759  1.00  0.00     0.282 C 
ENDBRANCH  43  45
ENDBRANCH  34  43
ENDBRANCH  22  24
ENDBRANCH  21  22
ENDBRANCH   1  16
TORSDOF 12
ENDMDL
MODEL 5
REMARK minimizedAffinity -5.90091419
REMARK CNNscore 0.267648607
REMARK CNNaffinity 5.06517172
REMARK SMILES CCN(OCCN1CCNCC1)C(=O)c1ccc(N/C(=C2\C(=O)Nc3cc(C(=O)OC)c(C)cc32)c2ccccc2)cc1
REMARK SMILES IDX 13 1 14 2 3 3 2 4 1 5 4 6 5 7 6 8 7 9 8 10 12 11 9 12 11 13
REMARK SMILES IDX 10 14 15 16 16 17 43 18 17 19 42 20 18 21 19 22 20 24 21 25
REMARK SMILES IDX 22 26 35 27 23 28 24 29 34 30 25 31 32 32 26 33 27 34 33 36
REMARK SMILES IDX 36 37 37 38 41 39 38 40 40 41 39 42 28 43 29 44 30 45 31 46
REMARK H PARENT 10 15 19 23 24 35
ROOT
ATOM      1  C   UNL     1      25.604  14.971  -8.910  1.00  0.00     0.277 C 
ATOM      2  O   UNL     1      25.828  14.452  -7.818  1.00  0.00    -0.267 OA
ENDROOT
BRANCH   1   3
ATOM      3  N   UNL     1      26.455  14.913 -10.004  1.00  0.00    -0.218 N 
BRANCH   3   4
ATOM      4  C   UNL     1      26.921  13.745 -10.748  1.00  0.00     0.150 C 
ATOM      5  C   UNL     1      27.763  12.795  -9.907  1.00  0.00     0.030 C 
ENDBRANCH   3   4
BRANCH   3   6
ATOM      6  O   UNL     1      26.366  16.060 -10.837  1.00  0.00    -0.269 OA
BRANCH   6   7
ATOM      7  C   UNL     1      26.248  15.646 -12.203  1.00  0.00     0.209 C 
BRANCH   7   8
ATOM      8  C   UNL     1      24.917  16.125 -12.816  1.00  0.00     0.116 C 
BRANCH   8   9
ATOM      9  N   UNL     1      24.478  15.580 -14.112  1.00  0.00    -0.298 NA
ATOM     10  C   UNL     1      23.264  16.210 -14.653  1.00  0.00     0.100 C 
ATOM     11  C   UNL     1      25.556  15.558 -15.119  1.00  0.00     0.100 C 
ATOM     12  C   UNL     1      22.827  15.554 -15.985  1.00  0.00     0.096 C 
ATOM     13  C   UNL     1      25.090  14.932 -16.453  1.00  0.00     0.096 C 
ATOM     14  N   UNL     1      23.886  15.582 -17.012  1.00  0.00    -0.314 NA
ATOM     15  H   UNL     1      24.122  16.558 -17.185  1.00  0.00     0.122 HD
ENDBRANCH   8   9
ENDBRANCH   7   8
ENDBRANCH   6   7
ENDBRANCH   3   6
ENDBRANCH   1   3
BRANCH   1  16
ATOM     16  C   UNL     1      24.283  15.595  -9.115  1.00  0.00     0.042 A 
ATOM     17  C   UNL     1      24.049  16.922  -8.762  1.00  0.00     0.016 A 
ATOM     18  C   UNL     1      23.253  14.813  -9.638  1.00  0.00     0.016 A 
ATOM     19  C   UNL     1      22.795  17.492  -9.008  1.00  0.00     0.027 A 
ATOM     20  C   UNL     1      21.999  15.385  -9.863  1.00  0.00     0.027 A 
ATOM     21  C   UNL     1      21.765  16.744  -9.598  1.00  0.00     0.038 A 
BRANCH  21  22
ATOM     22  N   UNL     1      20.464  17.266  -9.844  1.00  0.00    -0.354 N 
ATOM     23  H   UNL     1      20.194  17.834  -9.042  1.00  0.00     0.167 HD
BRANCH  22  24
ATOM     24  C   UNL     1      19.392  16.494 -10.283  1.00  0.00     0.059 C 
ATOM     25  C   UNL     1      18.545  15.766  -9.519  1.00  0.00     0.073 C 
ATOM     26  C   UNL     1      18.701  15.642  -8.017  1.00  0.00     0.258 C 
ATOM     27  C   UNL     1      17.382  14.929  -9.884  1.00  0.00     0.013 A 
ATOM     28  O   UNL     1      19.521  16.143  -7.274  1.00  0.00    -0.269 OA
ATOM     29  N   UNL     1      17.684  14.788  -7.619  1.00  0.00    -0.321 N 
ATOM     30  C   UNL     1      16.718  14.647 -11.068  1.00  0.00     0.015 A 
ATOM     31  C   UNL     1      16.916  14.365  -8.695  1.00  0.00     0.050 A 
ATOM     32  C   UNL     1      15.612  13.766 -11.060  1.00  0.00    -0.036 A 
ATOM     33  C   UNL     1      15.830  13.515  -8.633  1.00  0.00     0.042 A 
ATOM     34  C   UNL     1      15.167  13.202  -9.832  1.00  0.00     0.065 A 
ATOM     35  H   UNL     1      17.557  14.522  -6.655  1.00  0.00     0.170 HD
ATOM     36  C   UNL     1      14.941  13.466 -12.376  1.00  0.00     0.045 C 
BRANCH  24  37
ATOM     37  C   UNL     1      19.297  16.444 -11.759  1.00  0.00    -0.001 A 
ATOM     38  C   UNL     1      19.861  15.371 -12.464  1.00  0.00     0.010 A 
ATOM     39  C   UNL     1      18.613  17.448 -12.463  1.00  0.00     0.010 A 
ATOM     40  C   UNL     1      19.768  15.316 -13.856  1.00  0.00     0.001 A 
ATOM     41  C   UNL     1      18.520  17.387 -13.855  1.00  0.00     0.001 A 
ATOM     42  C   UNL     1      19.100  16.325 -14.549  1.00  0.00     0.000 A 
ENDBRANCH  24  37
BRANCH  34  43
ATOM     43  C   UNL     1      13.985  12.287  -9.790  1.00  0.00     0.338 C 
ATOM     44  O   UNL     1      14.048  11.070  -9.813  1.00  0.00    -0.246 OA
BRANCH  43  45
ATOM     45  O   UNL     1      12.842  13.018  -9.695  1.00  0.00    -0.465 OA
ATOM     46  C   UNL     1      13.041  14.341  -9.197  1.00  0.00     0.282 C 
ENDBRANCH  43  45
ENDBRANCH  34  43
ENDBRANCH  22  24
ENDBRANCH  21  22
ENDBRANCH   1  16
TORSDOF 12
ENDMDL
MODEL 6
REMARK minimizedAffinity -6.22121048
REMARK CNNscore 0.254523009
REMARK CNNaffinity 5.24902201
REMARK SMILES CCN(OCCN1CCNCC1)C(=O)c1ccc(N/C(=C2\C(=O)Nc3cc(C(=O)OC)c(C)cc32)c2ccccc2)cc1
REMARK SMILES IDX 13 1 14 2 3 3 2 4 1 5 4 6 5 7 6 8 7 9 8 10 12 11 9 12 11 13
REMARK SMILES IDX 10 14 15 16 16 17 43 18 17 19 42 20 18 21 19 22 20 24 21 25
REMARK SMILES IDX 22 26 35 27 23 28 24 29 34 30 25 31 32 32 26 33 27 34 33 36
REMARK SMILES IDX 36 37 37 38 41 39 38 40 40 41 39 42 28 43 29 44 30 45 31 46
REMARK H PARENT 10 15 19 23 24 35
ROOT
ATOM      1  C   UNL     1      26.086  14.825  -8.752  1.00  0.00     0.277 C 
ATOM      2  O   UNL     1      26.340  14.580  -7.574  1.00  0.00    -0.267 OA
ENDROOT
BRANCH   1   3
ATOM      3  N   UNL     1      26.821  14.361  -9.833  1.00  0.00    -0.218 N 
BRANCH   3   4
ATOM      4  C   UNL     1      27.178  12.989 -10.184  1.00  0.00     0.150 C 
ATOM      5  C   UNL     1      26.947  12.000  -9.049  1.00  0.00     0.030 C 
ENDBRANCH   3   4
BRANCH   3   6
ATOM      6  O   UNL     1      26.680  15.175 -10.989  1.00  0.00    -0.269 OA
BRANCH   6   7
ATOM      7  C   UNL     1      27.622  14.755 -11.982  1.00  0.00     0.209 C 
BRANCH   7   8
ATOM      8  C   UNL     1      28.874  15.655 -11.976  1.00  0.00     0.116 C 
BRANCH   8   9
ATOM      9  N   UNL     1      30.164  15.106 -12.428  1.00  0.00    -0.298 NA
ATOM     10  C   UNL     1      31.322  15.964 -12.137  1.00  0.00     0.100 C 
ATOM     11  C   UNL     1      30.395  13.726 -11.956  1.00  0.00     0.100 C 
ATOM     12  C   UNL     1      32.635  15.354 -12.687  1.00  0.00     0.096 C 
ATOM     13  C   UNL     1      31.727  13.149 -12.487  1.00  0.00     0.096 C 
ATOM     14  N   UNL     1      32.896  13.997 -12.171  1.00  0.00    -0.314 NA
ATOM     15  H   UNL     1      32.960  14.059 -11.156  1.00  0.00     0.122 HD
ENDBRANCH   8   9
ENDBRANCH   7   8
ENDBRANCH   6   7
ENDBRANCH   3   6
ENDBRANCH   1   3
BRANCH   1  16
ATOM     16  C   UNL     1      24.841  15.558  -9.047  1.00  0.00     0.042 A 
ATOM     17  C   UNL     1      24.748  16.934  -8.844  1.00  0.00     0.016 A 
ATOM     18  C   UNL     1      23.737  14.838  -9.502  1.00  0.00     0.016 A 
ATOM     19  C   UNL     1      23.564  17.603  -9.172  1.00  0.00     0.027 A 
ATOM     20  C   UNL     1      22.552  15.512  -9.810  1.00  0.00     0.027 A 
ATOM     21  C   UNL     1      22.464  16.909  -9.697  1.00  0.00     0.038 A 
BRANCH  21  22
ATOM     22  N   UNL     1      21.228  17.535 -10.022  1.00  0.00    -0.354 N 
ATOM     23  H   UNL     1      21.058  18.273  -9.339  1.00  0.00     0.167 HD
BRANCH  22  24
ATOM     24  C   UNL     1      20.054  16.836 -10.292  1.00  0.00     0.059 C 
ATOM     25  C   UNL     1      19.220  16.267  -9.394  1.00  0.00     0.073 C 
ATOM     26  C   UNL     1      19.501  16.263  -7.904  1.00  0.00     0.258 C 
ATOM     27  C   UNL     1      17.957  15.519  -9.577  1.00  0.00     0.013 A 
ATOM     28  O   UNL     1      20.427  16.746  -7.285  1.00  0.00    -0.269 OA
ATOM     29  N   UNL     1      18.452  15.552  -7.342  1.00  0.00    -0.321 N 
ATOM     30  C   UNL     1      17.164  15.199 -10.668  1.00  0.00     0.015 A 
ATOM     31  C   UNL     1      17.553  15.112  -8.304  1.00  0.00     0.050 A 
ATOM     32  C   UNL     1      15.989  14.435 -10.482  1.00  0.00    -0.036 A 
ATOM     33  C   UNL     1      16.405  14.382  -8.069  1.00  0.00     0.042 A 
ATOM     34  C   UNL     1      15.610  14.030  -9.172  1.00  0.00     0.065 A 
ATOM     35  H   UNL     1      18.391  15.388  -6.349  1.00  0.00     0.170 HD
ATOM     36  C   UNL     1      15.176  14.086 -11.703  1.00  0.00     0.045 C 
BRANCH  24  37
ATOM     37  C   UNL     1      19.821  16.663 -11.744  1.00  0.00    -0.001 A 
ATOM     38  C   UNL     1      20.245  15.493 -12.390  1.00  0.00     0.010 A 
ATOM     39  C   UNL     1      19.143  17.649 -12.478  1.00  0.00     0.010 A 
ATOM     40  C   UNL     1      20.020  15.324 -13.757  1.00  0.00     0.001 A 
ATOM     41  C   UNL     1      18.917  17.473 -13.845  1.00  0.00     0.001 A 
ATOM     42  C   UNL     1      19.359  16.314 -14.483  1.00  0.00     0.000 A 
ENDBRANCH  24  37
BRANCH  34  43
ATOM     43  C   UNL     1      14.358  13.244  -8.943  1.00  0.00     0.338 C 
ATOM     44  O   UNL     1      13.268  13.731  -8.698  1.00  0.00    -0.246 OA
BRANCH  43  45
ATOM     45  O   UNL     1      14.618  11.916  -9.077  1.00  0.00    -0.465 OA
ATOM     46  C   UNL     1      13.795  11.260 -10.043  1.00  0.00     0.282 C 
ENDBRANCH  43  45
ENDBRANCH  34  43
ENDBRANCH  22  24
ENDBRANCH  21  22
ENDBRANCH   1  16
TORSDOF 12
ENDMDL
MODEL 7
REMARK minimizedAffinity -6.20962667
REMARK CNNscore 0.249868512
REMARK CNNaffinity 5.66015005
REMARK SMILES CCN(OCCN1CCNCC1)C(=O)c1ccc(N/C(=C2\C(=O)Nc3cc(C(=O)OC)c(C)cc32)c2ccccc2)cc1
REMARK SMILES IDX 13 1 14 2 3 3 2 4 1 5 4 6 5 7 6 8 7 9 8 10 12 11 9 12 11 13
REMARK SMILES IDX 10 14 15 16 16 17 43 18 17 19 42 20 18 21 19 22 20 24 21 25
REMARK SMILES IDX 22 26 35 27 23 28 24 29 34 30 25 31 32 32 26 33 27 34 33 36
REMARK SMILES IDX 36 37 37 38 41 39 38 40 40 41 39 42 28 43 29 44 30 45 31 46
REMARK H PARENT 10 15 19 23 24 35
ROOT
ATOM      1  C   UNL     1       8.572  10.528 -17.200  1.00  0.00     0.277 C 
ATOM      2  O   UNL     1       8.501  11.399 -18.065  1.00  0.00    -0.267 OA
ENDROOT
BRANCH   1   3
ATOM      3  N   UNL     1       7.487  10.010 -16.507  1.00  0.00    -0.218 N 
BRANCH   3   4
ATOM      4  C   UNL     1       6.864  10.493 -15.277  1.00  0.00     0.150 C 
ATOM      5  C   UNL     1       6.049  11.763 -15.476  1.00  0.00     0.030 C 
ENDBRANCH   3   4
BRANCH   3   6
ATOM      6  O   UNL     1       6.543   9.370 -17.353  1.00  0.00    -0.269 OA
BRANCH   6   7
ATOM      7  C   UNL     1       5.953   8.267 -16.656  1.00  0.00     0.209 C 
BRANCH   7   8
ATOM      8  C   UNL     1       5.465   7.186 -17.640  1.00  0.00     0.116 C 
BRANCH   8   9
ATOM      9  N   UNL     1       4.084   6.682 -17.539  1.00  0.00    -0.298 NA
ATOM     10  C   UNL     1       3.703   5.743 -18.604  1.00  0.00     0.100 C 
ATOM     11  C   UNL     1       3.773   6.128 -16.207  1.00  0.00     0.100 C 
ATOM     12  C   UNL     1       2.226   5.299 -18.470  1.00  0.00     0.096 C 
ATOM     13  C   UNL     1       2.304   5.658 -16.105  1.00  0.00     0.096 C 
ATOM     14  N   UNL     1       1.928   4.692 -17.159  1.00  0.00    -0.314 NA
ATOM     15  H   UNL     1       2.529   3.876 -17.052  1.00  0.00     0.122 HD
ENDBRANCH   8   9
ENDBRANCH   7   8
ENDBRANCH   6   7
ENDBRANCH   3   6
ENDBRANCH   1   3
BRANCH   1  16
ATOM     16  C   UNL     1       9.884   9.896 -16.968  1.00  0.00     0.042 A 
ATOM     17  C   UNL     1      10.800  10.443 -16.070  1.00  0.00     0.016 A 
ATOM     18  C   UNL     1      10.210   8.754 -17.698  1.00  0.00     0.016 A 
ATOM     19  C   UNL     1      12.019   9.794 -15.847  1.00  0.00     0.027 A 
ATOM     20  C   UNL     1      11.438   8.123 -17.481  1.00  0.00     0.027 A 
ATOM     21  C   UNL     1      12.339   8.605 -16.518  1.00  0.00     0.038 A 
BRANCH  21  22
ATOM     22  N   UNL     1      13.575   7.922 -16.348  1.00  0.00    -0.354 N 
ATOM     23  H   UNL     1      13.830   7.967 -15.362  1.00  0.00     0.167 HD
BRANCH  22  24
ATOM     24  C   UNL     1      14.692   8.130 -17.154  1.00  0.00     0.059 C 
ATOM     25  C   UNL     1      15.218   7.271 -18.055  1.00  0.00     0.073 C 
ATOM     26  C   UNL     1      14.670   5.874 -18.271  1.00  0.00     0.258 C 
ATOM     27  C   UNL     1      16.383   7.400 -18.958  1.00  0.00     0.013 A 
ATOM     28  O   UNL     1      13.726   5.318 -17.746  1.00  0.00    -0.269 OA
ATOM     29  N   UNL     1      15.499   5.304 -19.224  1.00  0.00    -0.321 N 
ATOM     30  C   UNL     1      17.278   8.416 -19.253  1.00  0.00     0.015 A 
ATOM     31  C   UNL     1      16.498   6.180 -19.627  1.00  0.00     0.050 A 
ATOM     32  C   UNL     1      18.313   8.190 -20.189  1.00  0.00    -0.036 A 
ATOM     33  C   UNL     1      17.479   5.917 -20.562  1.00  0.00     0.042 A 
ATOM     34  C   UNL     1      18.408   6.932 -20.847  1.00  0.00     0.065 A 
ATOM     35  H   UNL     1      15.364   4.362 -19.553  1.00  0.00     0.170 HD
ATOM     36  C   UNL     1      19.281   9.315 -20.454  1.00  0.00     0.045 C 
BRANCH  24  37
ATOM     37  C   UNL     1      15.368   9.414 -16.863  1.00  0.00    -0.001 A 
ATOM     38  C   UNL     1      16.326   9.489 -15.841  1.00  0.00     0.010 A 
ATOM     39  C   UNL     1      15.084  10.558 -17.626  1.00  0.00     0.010 A 
ATOM     40  C   UNL     1      16.971  10.696 -15.568  1.00  0.00     0.001 A 
ATOM     41  C   UNL     1      15.735  11.763 -17.351  1.00  0.00     0.001 A 
ATOM     42  C   UNL     1      16.674  11.831 -16.321  1.00  0.00     0.000 A 
ENDBRANCH  24  37
BRANCH  34  43
ATOM     43  C   UNL     1      19.477   6.674 -21.861  1.00  0.00     0.338 C 
ATOM     44  O   UNL     1      19.368   6.892 -23.055  1.00  0.00    -0.246 OA
BRANCH  43  45
ATOM     45  O   UNL     1      20.588   6.190 -21.244  1.00  0.00    -0.465 OA
ATOM     46  C   UNL     1      21.055   4.952 -21.781  1.00  0.00     0.282 C 
ENDBRANCH  43  45
ENDBRANCH  34  43
ENDBRANCH  22  24
ENDBRANCH  21  22
ENDBRANCH   1  16
TORSDOF 12
ENDMDL
MODEL 8
REMARK minimizedAffinity -8.58281517
REMARK CNNscore 0.237953186
REMARK CNNaffinity 7.13768244
REMARK SMILES CCN(OCCN1CCNCC1)C(=O)c1ccc(N/C(=C2\C(=O)Nc3cc(C(=O)OC)c(C)cc32)c2ccccc2)cc1
REMARK SMILES IDX 13 1 14 2 3 3 2 4 1 5 4 6 5 7 6 8 7 9 8 10 12 11 9 12 11 13
REMARK SMILES IDX 10 14 15 16 16 17 43 18 17 19 42 20 18 21 19 22 20 24 21 25
REMARK SMILES IDX 22 26 35 27 23 28 24 29 34 30 25 31 32 32 26 33 27 34 33 36
REMARK SMILES IDX 36 37 37 38 41 39 38 40 40 41 39 42 28 43 29 44 30 45 31 46
REMARK H PARENT 10 15 19 23 24 35
ROOT
ATOM      1  C   UNL     1      18.480  -1.769 -13.620  1.00  0.00     0.277 C 
ATOM      2  O   UNL     1      18.163  -0.688 -14.115  1.00  0.00    -0.267 OA
ENDROOT
BRANCH   1   3
ATOM      3  N   UNL     1      17.651  -2.552 -12.830  1.00  0.00    -0.218 N 
BRANCH   3   4
ATOM      4  C   UNL     1      17.922  -3.157 -11.528  1.00  0.00     0.150 C 
ATOM      5  C   UNL     1      18.140  -4.662 -11.600  1.00  0.00     0.030 C 
ENDBRANCH   3   4
BRANCH   3   6
ATOM      6  O   UNL     1      16.276  -2.228 -12.979  1.00  0.00    -0.269 OA
BRANCH   6   7
ATOM      7  C   UNL     1      15.508  -2.974 -12.028  1.00  0.00     0.209 C 
BRANCH   7   8
ATOM      8  C   UNL     1      14.812  -2.038 -11.020  1.00  0.00     0.116 C 
BRANCH   8   9
ATOM      9  N   UNL     1      13.417  -2.303 -10.628  1.00  0.00    -0.298 NA
ATOM     10  C   UNL     1      12.851  -3.534 -11.199  1.00  0.00     0.100 C 
ATOM     11  C   UNL     1      13.216  -2.255  -9.166  1.00  0.00     0.100 C 
ATOM     12  C   UNL     1      11.369  -3.721 -10.791  1.00  0.00     0.096 C 
ATOM     13  C   UNL     1      11.736  -2.480  -8.779  1.00  0.00     0.096 C 
ATOM     14  N   UNL     1      11.174  -3.731  -9.329  1.00  0.00    -0.314 NA
ATOM     15  H   UNL     1      11.721  -4.502  -8.949  1.00  0.00     0.122 HD
ENDBRANCH   8   9
ENDBRANCH   7   8
ENDBRANCH   6   7
ENDBRANCH   3   6
ENDBRANCH   1   3
BRANCH   1  16
ATOM     16  C   UNL     1      19.789  -2.336 -13.993  1.00  0.00     0.042 A 
ATOM     17  C   UNL     1      20.224  -3.553 -13.470  1.00  0.00     0.016 A 
ATOM     18  C   UNL     1      20.607  -1.608 -14.857  1.00  0.00     0.016 A 
ATOM     19  C   UNL     1      21.455  -4.079 -13.878  1.00  0.00     0.027 A 
ATOM     20  C   UNL     1      21.843  -2.134 -15.244  1.00  0.00     0.027 A 
ATOM     21  C   UNL     1      22.262  -3.398 -14.800  1.00  0.00     0.038 A 
BRANCH  21  22
ATOM     22  N   UNL     1      23.533  -3.875 -15.226  1.00  0.00    -0.354 N 
ATOM     23  H   UNL     1      23.804  -4.646 -14.616  1.00  0.00     0.167 HD
BRANCH  22  24
ATOM     24  C   UNL     1      24.624  -3.047 -15.484  1.00  0.00     0.059 C 
ATOM     25  C   UNL     1      25.454  -2.488 -14.576  1.00  0.00     0.073 C 
ATOM     26  C   UNL     1      25.260  -2.648 -13.081  1.00  0.00     0.258 C 
ATOM     27  C   UNL     1      26.634  -1.612 -14.746  1.00  0.00     0.013 A 
ATOM     28  O   UNL     1      24.417  -3.271 -12.467  1.00  0.00    -0.269 OA
ATOM     29  N   UNL     1      26.272  -1.898 -12.503  1.00  0.00    -0.321 N 
ATOM     30  C   UNL     1      27.331  -1.120 -15.838  1.00  0.00     0.015 A 
ATOM     31  C   UNL     1      27.072  -1.289 -13.461  1.00  0.00     0.050 A 
ATOM     32  C   UNL     1      28.443  -0.270 -15.636  1.00  0.00    -0.036 A 
ATOM     33  C   UNL     1      28.163  -0.480 -13.211  1.00  0.00     0.042 A 
ATOM     34  C   UNL     1      28.860   0.046 -14.312  1.00  0.00     0.065 A 
ATOM     35  H   UNL     1      26.375  -1.821 -11.504  1.00  0.00     0.170 HD
ATOM     36  C   UNL     1      29.151   0.265 -16.855  1.00  0.00     0.045 C 
BRANCH  24  37
ATOM     37  C   UNL     1      24.758  -2.720 -16.921  1.00  0.00    -0.001 A 
ATOM     38  C   UNL     1      24.135  -1.577 -17.444  1.00  0.00     0.010 A 
ATOM     39  C   UNL     1      25.537  -3.528 -17.765  1.00  0.00     0.010 A 
ATOM     40  C   UNL     1      24.265  -1.262 -18.797  1.00  0.00     0.001 A 
ATOM     41  C   UNL     1      25.667  -3.205 -19.118  1.00  0.00     0.001 A 
ATOM     42  C   UNL     1      25.028  -2.076 -19.632  1.00  0.00     0.000 A 
ENDBRANCH  24  37
BRANCH  34  43
ATOM     43  C   UNL     1      30.048   0.921 -14.069  1.00  0.00     0.338 C 
ATOM     44  O   UNL     1      31.199   0.615 -14.327  1.00  0.00    -0.246 OA
BRANCH  43  45
ATOM     45  O   UNL     1      29.644   2.109 -13.546  1.00  0.00    -0.465 OA
ATOM     46  C   UNL     1      28.940   2.939 -14.471  1.00  0.00     0.282 C 
ENDBRANCH  43  45
ENDBRANCH  34  43
ENDBRANCH  22  24
ENDBRANCH  21  22
ENDBRANCH   1  16
TORSDOF 12
ENDMDL
MODEL 9
REMARK minimizedAffinity -7.13954592
REMARK CNNscore 0.222291663
REMARK CNNaffinity 5.23901033
REMARK SMILES CCN(OCCN1CCNCC1)C(=O)c1ccc(N/C(=C2\C(=O)Nc3cc(C(=O)OC)c(C)cc32)c2ccccc2)cc1
REMARK SMILES IDX 13 1 14 2 3 3 2 4 1 5 4 6 5 7 6 8 7 9 8 10 12 11 9 12 11 13
REMARK SMILES IDX 10 14 15 16 16 17 43 18 17 19 42 20 18 21 19 22 20 24 21 25
REMARK SMILES IDX 22 26 35 27 23 28 24 29 34 30 25 31 32 32 26 33 27 34 33 36
REMARK SMILES IDX 36 37 37 38 41 39 38 40 40 41 39 42 28 43 29 44 30 45 31 46
REMARK H PARENT 10 15 19 23 24 35
ROOT
ATOM      1  C   UNL     1      18.216  15.282  -9.252  1.00  0.00     0.277 C 
ATOM      2  O   UNL     1      17.771  15.359 -10.396  1.00  0.00    -0.267 OA
ENDROOT
BRANCH   1   3
ATOM      3  N   UNL     1      17.479  14.905  -8.139  1.00  0.00    -0.218 N 
BRANCH   3   4
ATOM      4  C   UNL     1      16.808  15.747  -7.150  1.00  0.00     0.150 C 
ATOM      5  C   UNL     1      17.388  15.605  -5.749  1.00  0.00     0.030 C 
ENDBRANCH   3   4
BRANCH   3   6
ATOM      6  O   UNL     1      16.804  13.668  -8.314  1.00  0.00    -0.269 OA
BRANCH   6   7
ATOM      7  C   UNL     1      15.390  13.892  -8.295  1.00  0.00     0.209 C 
BRANCH   7   8
ATOM      8  C   UNL     1      14.815  13.935  -9.725  1.00  0.00     0.116 C 
BRANCH   8   9
ATOM      9  N   UNL     1      14.285  12.702 -10.331  1.00  0.00    -0.298 NA
ATOM     10  C   UNL     1      12.835  12.520 -10.165  1.00  0.00     0.100 C 
ATOM     11  C   UNL     1      14.681  12.542 -11.743  1.00  0.00     0.100 C 
ATOM     12  C   UNL     1      12.356  11.181 -10.775  1.00  0.00     0.096 C 
ATOM     13  C   UNL     1      14.163  11.215 -12.343  1.00  0.00     0.096 C 
ATOM     14  N   UNL     1      12.701  11.045 -12.203  1.00  0.00    -0.314 NA
ATOM     15  H   UNL     1      12.257  11.814 -12.703  1.00  0.00     0.122 HD
ENDBRANCH   8   9
ENDBRANCH   7   8
ENDBRANCH   6   7
ENDBRANCH   3   6
ENDBRANCH   1   3
BRANCH   1  16
ATOM     16  C   UNL     1      19.665  15.482  -9.065  1.00  0.00     0.042 A 
ATOM     17  C   UNL     1      20.595  14.757  -9.808  1.00  0.00     0.016 A 
ATOM     18  C   UNL     1      20.091  16.390  -8.096  1.00  0.00     0.016 A 
ATOM     19  C   UNL     1      21.962  15.002  -9.631  1.00  0.00     0.027 A 
ATOM     20  C   UNL     1      21.458  16.615  -7.915  1.00  0.00     0.027 A 
ATOM     21  C   UNL     1      22.411  15.961  -8.713  1.00  0.00     0.038 A 
BRANCH  21  22
ATOM     22  N   UNL     1      23.788  16.229  -8.475  1.00  0.00    -0.354 N 
ATOM     23  H   UNL     1      23.865  17.165  -8.077  1.00  0.00     0.167 HD
BRANCH  22  24
ATOM     24  C   UNL     1      24.793  16.012  -9.416  1.00  0.00     0.059 C 
ATOM     25  C   UNL     1      25.597  14.930  -9.512  1.00  0.00     0.073 C 
ATOM     26  C   UNL     1      25.550  13.784  -8.520  1.00  0.00     0.258 C 
ATOM     27  C   UNL     1      26.676  14.602 -10.470  1.00  0.00     0.013 A 
ATOM     28  O   UNL     1      24.832  13.618  -7.555  1.00  0.00    -0.269 OA
ATOM     29  N   UNL     1      26.546  12.912  -8.930  1.00  0.00    -0.321 N 
ATOM     30  C   UNL     1      27.190  15.212 -11.603  1.00  0.00     0.015 A 
ATOM     31  C   UNL     1      27.208  13.379 -10.058  1.00  0.00     0.050 A 
ATOM     32  C   UNL     1      28.266  14.611 -12.296  1.00  0.00    -0.036 A 
ATOM     33  C   UNL     1      28.245  12.743 -10.712  1.00  0.00     0.042 A 
ATOM     34  C   UNL     1      28.791  13.368 -11.846  1.00  0.00     0.065 A 
ATOM     35  H   UNL     1      26.741  12.055  -8.437  1.00  0.00     0.170 HD
ATOM     36  C   UNL     1      28.811  15.327 -13.506  1.00  0.00     0.045 C 
BRANCH  24  37
ATOM     37  C   UNL     1      24.996  17.177 -10.306  1.00  0.00    -0.001 A 
ATOM     38  C   UNL     1      25.887  18.195  -9.939  1.00  0.00     0.010 A 
ATOM     39  C   UNL     1      24.328  17.256 -11.539  1.00  0.00     0.010 A 
ATOM     40  C   UNL     1      26.087  19.292 -10.779  1.00  0.00     0.001 A 
ATOM     41  C   UNL     1      24.534  18.353 -12.377  1.00  0.00     0.001 A 
ATOM     42  C   UNL     1      25.409  19.371 -11.995  1.00  0.00     0.000 A 
ENDBRANCH  24  37
BRANCH  34  43
ATOM     43  C   UNL     1      29.910  12.697 -12.576  1.00  0.00     0.338 C 
ATOM     44  O   UNL     1      31.092  12.953 -12.419  1.00  0.00    -0.246 OA
BRANCH  43  45
ATOM     45  O   UNL     1      29.411  11.748 -13.411  1.00  0.00    -0.465 OA
ATOM     46  C   UNL     1      30.400  11.117 -14.227  1.00  0.00     0.282 C 
ENDBRANCH  43  45
ENDBRANCH  34  43
ENDBRANCH  22  24
ENDBRANCH  21  22
ENDBRANCH   1  16
TORSDOF 12
ENDMDL
