MODEL 1
REMARK minimizedAffinity -8.47580528
REMARK CNNscore 0.832074583
REMARK CNNaffinity 7.39737129
REMARK SMILES C=CC(=O)Nc1ccc(-n2nc3c(=O)[nH]nc(N)c3c2-c2oc3ccc(C)cc3c2C)cc1
REMARK SMILES IDX 10 1 11 2 12 3 13 4 14 5 15 6 16 7 17 8 19 9 20 10 9 12 6 13
REMARK SMILES IDX 7 14 33 15 8 16 32 17 5 18 3 19 4 20 2 22 1 23 21 24 22 25
REMARK SMILES IDX 30 26 23 27 29 28 24 29 28 30 25 31 26 32 31 33 27 34 18 35
REMARK H PARENT 15 11 5 21 18 36 18 37
ROOT
ATOM      1  N   UNL     1      18.703  -4.225 -11.536  1.00  0.00    -0.228 N 
ATOM      2  N   UNL     1      17.350  -4.061 -11.480  1.00  0.00    -0.161 NA
ATOM      3  C   UNL     1      17.112  -2.946 -12.177  1.00  0.00     0.164 A 
ATOM      4  C   UNL     1      15.824  -2.296 -12.370  1.00  0.00     0.292 A 
ATOM      5  O   UNL     1      14.759  -2.671 -11.890  1.00  0.00    -0.265 OA
ATOM      6  N   UNL     1      15.909  -1.165 -13.176  1.00  0.00    -0.240 N 
ATOM      7  N   UNL     1      17.050  -0.655 -13.776  1.00  0.00    -0.154 NA
ATOM      8  C   UNL     1      18.192  -1.255 -13.596  1.00  0.00     0.155 A 
ATOM      9  C   UNL     1      18.274  -2.435 -12.775  1.00  0.00     0.081 A 
ATOM     10  C   UNL     1      19.280  -3.318 -12.429  1.00  0.00     0.122 A 
ATOM     11  H   UNL     1      15.045  -0.665 -13.353  1.00  0.00     0.194 HD
ENDROOT
BRANCH   1  12
ATOM     12  C   UNL     1      19.304  -5.233 -10.714  1.00  0.00     0.066 A 
ATOM     13  C   UNL     1      20.518  -7.274  -9.173  1.00  0.00     0.041 A 
ATOM     14  C   UNL     1      20.510  -7.350 -10.563  1.00  0.00     0.028 A 
ATOM     15  C   UNL     1      19.903  -6.178  -8.558  1.00  0.00     0.028 A 
ATOM     16  C   UNL     1      19.903  -6.344 -11.328  1.00  0.00     0.030 A 
ATOM     17  C   UNL     1      19.292  -5.170  -9.317  1.00  0.00     0.030 A 
BRANCH  13  18
ATOM     18  N   UNL     1      21.114  -8.234  -8.331  1.00  0.00    -0.323 N 
ATOM     19  C   UNL     1      20.894  -9.594  -8.329  1.00  0.00     0.247 C 
ATOM     20  O   UNL     1      20.087 -10.224  -9.001  1.00  0.00    -0.270 OA
ATOM     21  H   UNL     1      21.724  -7.873  -7.610  1.00  0.00     0.170 HD
BRANCH  19  22
ATOM     22  C   UNL     1      21.708 -10.336  -7.325  1.00  0.00     0.064 C 
ATOM     23  C   UNL     1      21.593 -10.207  -5.996  1.00  0.00     0.014 C 
ENDBRANCH  19  22
ENDBRANCH  13  18
ENDBRANCH   1  12
BRANCH  10  24
ATOM     24  C   UNL     1      20.627  -3.345 -12.903  1.00  0.00     0.157 A 
ATOM     25  O   UNL     1      20.907  -3.442 -14.239  1.00  0.00    -0.454 OA
ATOM     26  C   UNL     1      21.815  -3.340 -12.179  1.00  0.00     0.005 A 
ATOM     27  C   UNL     1      22.257  -3.446 -14.383  1.00  0.00     0.135 A 
ATOM     28  C   UNL     1      22.871  -3.386 -13.142  1.00  0.00     0.024 A 
ATOM     29  C   UNL     1      22.937  -3.510 -15.596  1.00  0.00     0.048 A 
ATOM     30  C   UNL     1      24.279  -3.393 -13.099  1.00  0.00     0.015 A 
ATOM     31  C   UNL     1      24.334  -3.508 -15.531  1.00  0.00     0.007 A 
ATOM     32  C   UNL     1      25.009  -3.460 -14.303  1.00  0.00    -0.050 A 
ATOM     33  C   UNL     1      21.963  -3.320 -10.698  1.00  0.00     0.049 C 
ATOM     34  C   UNL     1      26.510  -3.433 -14.260  1.00  0.00     0.044 C 
ENDBRANCH  10  24
BRANCH   8  35
ATOM     35  N   UNL     1      19.352  -0.810 -14.146  1.00  0.00    -0.382 N 
ATOM     36  H   UNL     1      20.208  -0.998 -13.634  1.00  0.00     0.158 HD
ATOM     37  H   UNL     1      19.294   0.144 -14.483  1.00  0.00     0.158 HD
ENDBRANCH   8  35
TORSDOF 5
ENDMDL
MODEL 2
REMARK minimizedAffinity -7.73866701
REMARK CNNscore 0.532436609
REMARK CNNaffinity 6.50064516
REMARK SMILES C=CC(=O)Nc1ccc(-n2nc3c(=O)[nH]nc(N)c3c2-c2oc3ccc(C)cc3c2C)cc1
REMARK SMILES IDX 10 1 11 2 12 3 13 4 14 5 15 6 16 7 17 8 19 9 20 10 9 12 6 13
REMARK SMILES IDX 7 14 33 15 8 16 32 17 5 18 3 19 4 20 2 22 1 23 21 24 22 25
REMARK SMILES IDX 30 26 23 27 29 28 24 29 28 30 25 31 26 32 31 33 27 34 18 35
REMARK H PARENT 15 11 5 21 18 36 18 37
ROOT
ATOM      1  N   UNL     1      38.178   2.638   4.287  1.00  0.00    -0.228 N 
ATOM      2  N   UNL     1      37.966   3.975   4.113  1.00  0.00    -0.161 NA
ATOM      3  C   UNL     1      38.259   4.202   2.830  1.00  0.00     0.164 A 
ATOM      4  C   UNL     1      38.256   5.489   2.148  1.00  0.00     0.292 A 
ATOM      5  O   UNL     1      38.005   6.570   2.672  1.00  0.00    -0.265 OA
ATOM      6  N   UNL     1      38.578   5.384   0.800  1.00  0.00    -0.240 N 
ATOM      7  N   UNL     1      38.871   4.221   0.102  1.00  0.00    -0.154 NA
ATOM      8  C   UNL     1      38.863   3.079   0.729  1.00  0.00     0.155 A 
ATOM      9  C   UNL     1      38.560   3.021   2.135  1.00  0.00     0.081 A 
ATOM     10  C   UNL     1      38.417   2.006   3.064  1.00  0.00     0.122 A 
ATOM     11  H   UNL     1      38.592   6.245   0.265  1.00  0.00     0.194 HD
ENDROOT
BRANCH   1  12
ATOM     12  C   UNL     1      38.139   2.108   5.617  1.00  0.00     0.066 A 
ATOM     13  C   UNL     1      38.036   1.148   8.279  1.00  0.00     0.041 A 
ATOM     14  C   UNL     1      37.737   2.478   7.996  1.00  0.00     0.028 A 
ATOM     15  C   UNL     1      38.400   0.304   7.224  1.00  0.00     0.028 A 
ATOM     16  C   UNL     1      37.794   2.957   6.680  1.00  0.00     0.030 A 
ATOM     17  C   UNL     1      38.462   0.777   5.906  1.00  0.00     0.030 A 
BRANCH  13  18
ATOM     18  N   UNL     1      37.992   0.584   9.569  1.00  0.00    -0.323 N 
ATOM     19  C   UNL     1      36.885   0.097  10.229  1.00  0.00     0.247 C 
ATOM     20  O   UNL     1      35.718   0.129   9.860  1.00  0.00    -0.270 OA
ATOM     21  H   UNL     1      38.860   0.594  10.088  1.00  0.00     0.170 HD
BRANCH  19  22
ATOM     22  C   UNL     1      37.184  -0.461  11.579  1.00  0.00     0.064 C 
ATOM     23  C   UNL     1      36.474  -0.211  12.688  1.00  0.00     0.014 C 
ENDBRANCH  19  22
ENDBRANCH  13  18
ENDBRANCH   1  12
BRANCH  10  24
ATOM     24  C   UNL     1      38.458   0.597   2.839  1.00  0.00     0.157 A 
ATOM     25  O   UNL     1      37.310  -0.144   2.763  1.00  0.00    -0.454 OA
ATOM     26  C   UNL     1      39.561  -0.244   2.723  1.00  0.00     0.005 A 
ATOM     27  C   UNL     1      37.661  -1.437   2.547  1.00  0.00     0.135 A 
ATOM     28  C   UNL     1      39.042  -1.560   2.513  1.00  0.00     0.024 A 
ATOM     29  C   UNL     1      36.773  -2.498   2.388  1.00  0.00     0.048 A 
ATOM     30  C   UNL     1      39.589  -2.842   2.309  1.00  0.00     0.015 A 
ATOM     31  C   UNL     1      37.337  -3.761   2.179  1.00  0.00     0.007 A 
ATOM     32  C   UNL     1      38.727  -3.945   2.148  1.00  0.00    -0.050 A 
ATOM     33  C   UNL     1      40.996   0.139   2.823  1.00  0.00     0.049 C 
ATOM     34  C   UNL     1      39.308  -5.307   1.895  1.00  0.00     0.044 C 
ENDBRANCH  10  24
BRANCH   8  35
ATOM     35  N   UNL     1      39.145   1.900   0.114  1.00  0.00    -0.382 N 
ATOM     36  H   UNL     1      39.567   1.173   0.681  1.00  0.00     0.158 HD
ATOM     37  H   UNL     1      39.602   2.017  -0.783  1.00  0.00     0.158 HD
ENDBRANCH   8  35
TORSDOF 5
ENDMDL
MODEL 3
REMARK minimizedAffinity -6.90335798
REMARK CNNscore 0.333729118
REMARK CNNaffinity 6.3987422
REMARK SMILES C=CC(=O)Nc1ccc(-n2nc3c(=O)[nH]nc(N)c3c2-c2oc3ccc(C)cc3c2C)cc1
REMARK SMILES IDX 10 1 11 2 12 3 13 4 14 5 15 6 16 7 17 8 19 9 20 10 9 12 6 13
REMARK SMILES IDX 7 14 33 15 8 16 32 17 5 18 3 19 4 20 2 22 1 23 21 24 22 25
REMARK SMILES IDX 30 26 23 27 29 28 24 29 28 30 25 31 26 32 31 33 27 34 18 35
REMARK H PARENT 15 11 5 21 18 36 18 37
ROOT
ATOM      1  N   UNL     1      14.099  -8.235  -0.558  1.00  0.00    -0.228 N 
ATOM      2  N   UNL     1      14.732  -8.525  -1.731  1.00  0.00    -0.161 NA
ATOM      3  C   UNL     1      15.931  -8.986  -1.366  1.00  0.00     0.164 A 
ATOM      4  C   UNL     1      17.021  -9.379  -2.248  1.00  0.00     0.292 A 
ATOM      5  O   UNL     1      17.001  -9.316  -3.474  1.00  0.00    -0.265 OA
ATOM      6  N   UNL     1      18.131  -9.848  -1.555  1.00  0.00    -0.240 N 
ATOM      7  N   UNL     1      18.263  -9.971  -0.180  1.00  0.00    -0.154 NA
ATOM      8  C   UNL     1      17.274  -9.620   0.592  1.00  0.00     0.155 A 
ATOM      9  C   UNL     1      16.056  -9.101   0.027  1.00  0.00     0.081 A 
ATOM     10  C   UNL     1      14.835  -8.698   0.536  1.00  0.00     0.122 A 
ATOM     11  H   UNL     1      18.926 -10.142  -2.111  1.00  0.00     0.194 HD
ENDROOT
BRANCH   1  12
ATOM     12  C   UNL     1      12.853  -7.530  -0.610  1.00  0.00     0.066 A 
ATOM     13  C   UNL     1      10.354  -6.199  -0.642  1.00  0.00     0.041 A 
ATOM     14  C   UNL     1      10.565  -7.282   0.206  1.00  0.00     0.028 A 
ATOM     15  C   UNL     1      11.395  -5.794  -1.484  1.00  0.00     0.028 A 
ATOM     16  C   UNL     1      11.799  -7.947   0.219  1.00  0.00     0.030 A 
ATOM     17  C   UNL     1      12.631  -6.456  -1.479  1.00  0.00     0.030 A 
BRANCH  13  18
ATOM     18  N   UNL     1       9.151  -5.469  -0.710  1.00  0.00    -0.323 N 
ATOM     19  C   UNL     1       8.098  -5.672  -1.575  1.00  0.00     0.247 C 
ATOM     20  O   UNL     1       8.033  -6.472  -2.501  1.00  0.00    -0.270 OA
ATOM     21  H   UNL     1       9.082  -4.671  -0.093  1.00  0.00     0.170 HD
BRANCH  19  22
ATOM     22  C   UNL     1       6.955  -4.739  -1.367  1.00  0.00     0.064 C 
ATOM     23  C   UNL     1       6.773  -3.979  -0.278  1.00  0.00     0.014 C 
ENDBRANCH  19  22
ENDBRANCH  13  18
ENDBRANCH   1  12
BRANCH  10  24
ATOM     24  C   UNL     1      14.381  -8.768   1.888  1.00  0.00     0.157 A 
ATOM     25  O   UNL     1      14.756  -7.832   2.812  1.00  0.00    -0.454 OA
ATOM     26  C   UNL     1      13.593  -9.737   2.502  1.00  0.00     0.005 A 
ATOM     27  C   UNL     1      14.177  -8.158   3.996  1.00  0.00     0.135 A 
ATOM     28  C   UNL     1      13.445  -9.328   3.865  1.00  0.00     0.024 A 
ATOM     29  C   UNL     1      14.299  -7.434   5.179  1.00  0.00     0.048 A 
ATOM     30  C   UNL     1      12.782  -9.825   5.003  1.00  0.00     0.015 A 
ATOM     31  C   UNL     1      13.625  -7.941   6.295  1.00  0.00     0.007 A 
ATOM     32  C   UNL     1      12.881  -9.127   6.223  1.00  0.00    -0.050 A 
ATOM     33  C   UNL     1      13.036 -10.968   1.879  1.00  0.00     0.049 C 
ATOM     34  C   UNL     1      12.145  -9.637   7.429  1.00  0.00     0.044 C 
ENDBRANCH  10  24
BRANCH   8  35
ATOM     35  N   UNL     1      17.332  -9.706   1.947  1.00  0.00    -0.382 N 
ATOM     36  H   UNL     1      16.789  -9.032   2.476  1.00  0.00     0.158 HD
ATOM     37  H   UNL     1      18.276  -9.818   2.300  1.00  0.00     0.158 HD
ENDBRANCH   8  35
TORSDOF 5
ENDMDL
MODEL 4
REMARK minimizedAffinity -5.88048315
REMARK CNNscore 0.33253637
REMARK CNNaffinity 6.2300849
REMARK SMILES C=CC(=O)Nc1ccc(-n2nc3c(=O)[nH]nc(N)c3c2-c2oc3ccc(C)cc3c2C)cc1
REMARK SMILES IDX 10 1 11 2 12 3 13 4 14 5 15 6 16 7 17 8 19 9 20 10 9 12 6 13
REMARK SMILES IDX 7 14 33 15 8 16 32 17 5 18 3 19 4 20 2 22 1 23 21 24 22 25
REMARK SMILES IDX 30 26 23 27 29 28 24 29 28 30 25 31 26 32 31 33 27 34 18 35
REMARK H PARENT 15 11 5 21 18 36 18 37
ROOT
ATOM      1  N   UNL     1      -3.735  -6.073 -24.677  1.00  0.00    -0.228 N 
ATOM      2  N   UNL     1      -2.711  -6.236 -25.563  1.00  0.00    -0.161 NA
ATOM      3  C   UNL     1      -2.464  -7.549 -25.561  1.00  0.00     0.164 A 
ATOM      4  C   UNL     1      -1.414  -8.241 -26.295  1.00  0.00     0.292 A 
ATOM      5  O   UNL     1      -0.577  -7.703 -27.013  1.00  0.00    -0.265 OA
ATOM      6  N   UNL     1      -1.442  -9.618 -26.103  1.00  0.00    -0.240 N 
ATOM      7  N   UNL     1      -2.342 -10.332 -25.326  1.00  0.00    -0.154 NA
ATOM      8  C   UNL     1      -3.278  -9.695 -24.681  1.00  0.00     0.155 A 
ATOM      9  C   UNL     1      -3.375  -8.261 -24.766  1.00  0.00     0.081 A 
ATOM     10  C   UNL     1      -4.248  -7.308 -24.271  1.00  0.00     0.122 A 
ATOM     11  H   UNL     1      -0.738 -10.161 -26.590  1.00  0.00     0.194 HD
ENDROOT
BRANCH   1  12
ATOM     12  C   UNL     1      -4.109  -4.742 -24.301  1.00  0.00     0.066 A 
ATOM     13  C   UNL     1      -4.922  -2.115 -23.626  1.00  0.00     0.041 A 
ATOM     14  C   UNL     1      -5.598  -2.832 -24.609  1.00  0.00     0.028 A 
ATOM     15  C   UNL     1      -3.828  -2.715 -22.992  1.00  0.00     0.028 A 
ATOM     16  C   UNL     1      -5.193  -4.130 -24.950  1.00  0.00     0.030 A 
ATOM     17  C   UNL     1      -3.416  -4.012 -23.330  1.00  0.00     0.030 A 
BRANCH  13  18
ATOM     18  N   UNL     1      -5.269  -0.813 -23.215  1.00  0.00    -0.323 N 
ATOM     19  C   UNL     1      -5.917  -0.449 -22.055  1.00  0.00     0.247 C 
ATOM     20  O   UNL     1      -6.384  -1.185 -21.195  1.00  0.00    -0.270 OA
ATOM     21  H   UNL     1      -5.073  -0.073 -23.875  1.00  0.00     0.170 HD
BRANCH  19  22
ATOM     22  C   UNL     1      -6.111   1.021 -21.908  1.00  0.00     0.064 C 
ATOM     23  C   UNL     1      -7.246   1.609 -21.503  1.00  0.00     0.014 C 
ENDBRANCH  19  22
ENDBRANCH  13  18
ENDBRANCH   1  12
BRANCH  10  24
ATOM     24  C   UNL     1      -5.451  -7.519 -23.532  1.00  0.00     0.157 A 
ATOM     25  O   UNL     1      -6.559  -8.066 -24.121  1.00  0.00    -0.454 OA
ATOM     26  C   UNL     1      -5.742  -7.191 -22.212  1.00  0.00     0.005 A 
ATOM     27  C   UNL     1      -7.536  -8.141 -23.182  1.00  0.00     0.135 A 
ATOM     28  C   UNL     1      -7.089  -7.614 -21.981  1.00  0.00     0.024 A 
ATOM     29  C   UNL     1      -8.811  -8.663 -23.386  1.00  0.00     0.048 A 
ATOM     30  C   UNL     1      -7.980  -7.598 -20.891  1.00  0.00     0.015 A 
ATOM     31  C   UNL     1      -9.678  -8.645 -22.288  1.00  0.00     0.007 A 
ATOM     32  C   UNL     1      -9.282  -8.112 -21.053  1.00  0.00    -0.050 A 
ATOM     33  C   UNL     1      -4.845  -6.511 -21.238  1.00  0.00     0.049 C 
ATOM     34  C   UNL     1     -10.223  -8.129 -19.882  1.00  0.00     0.044 C 
ENDBRANCH  10  24
BRANCH   8  35
ATOM     35  N   UNL     1      -4.190 -10.325 -23.896  1.00  0.00    -0.382 N 
ATOM     36  H   UNL     1      -4.555  -9.806 -23.104  1.00  0.00     0.158 HD
ATOM     37  H   UNL     1      -3.924 -11.274 -23.658  1.00  0.00     0.158 HD
ENDBRANCH   8  35
TORSDOF 5
ENDMDL
MODEL 5
REMARK minimizedAffinity -7.42685223
REMARK CNNscore 0.315698713
REMARK CNNaffinity 5.58548975
REMARK SMILES C=CC(=O)Nc1ccc(-n2nc3c(=O)[nH]nc(N)c3c2-c2oc3ccc(C)cc3c2C)cc1
REMARK SMILES IDX 10 1 11 2 12 3 13 4 14 5 15 6 16 7 17 8 19 9 20 10 9 12 6 13
REMARK SMILES IDX 7 14 33 15 8 16 32 17 5 18 3 19 4 20 2 22 1 23 21 24 22 25
REMARK SMILES IDX 30 26 23 27 29 28 24 29 28 30 25 31 26 32 31 33 27 34 18 35
REMARK H PARENT 15 11 5 21 18 36 18 37
ROOT
ATOM      1  N   UNL     1      38.020   0.202   2.966  1.00  0.00    -0.228 N 
ATOM      2  N   UNL     1      37.665   0.187   4.283  1.00  0.00    -0.161 NA
ATOM      3  C   UNL     1      38.303   1.231   4.820  1.00  0.00     0.164 A 
ATOM      4  C   UNL     1      38.310   1.623   6.222  1.00  0.00     0.292 A 
ATOM      5  O   UNL     1      37.742   1.024   7.130  1.00  0.00    -0.265 OA
ATOM      6  N   UNL     1      39.048   2.779   6.453  1.00  0.00    -0.240 N 
ATOM      7  N   UNL     1      39.721   3.539   5.509  1.00  0.00    -0.154 NA
ATOM      8  C   UNL     1      39.698   3.175   4.258  1.00  0.00     0.155 A 
ATOM      9  C   UNL     1      38.987   1.989   3.857  1.00  0.00     0.081 A 
ATOM     10  C   UNL     1      38.723   1.368   2.650  1.00  0.00     0.122 A 
ATOM     11  H   UNL     1      39.091   3.109   7.411  1.00  0.00     0.194 HD
ENDROOT
BRANCH   1  12
ATOM     12  C   UNL     1      37.654  -0.915   2.147  1.00  0.00     0.066 A 
ATOM     13  C   UNL     1      36.926  -3.178   0.609  1.00  0.00     0.041 A 
ATOM     14  C   UNL     1      37.045  -3.273   1.993  1.00  0.00     0.028 A 
ATOM     15  C   UNL     1      37.186  -1.947  -0.002  1.00  0.00     0.028 A 
ATOM     16  C   UNL     1      37.412  -2.156   2.756  1.00  0.00     0.030 A 
ATOM     17  C   UNL     1      37.557  -0.826   0.754  1.00  0.00     0.030 A 
BRANCH  13  18
ATOM     18  N   UNL     1      36.551  -4.247  -0.229  1.00  0.00    -0.323 N 
ATOM     19  C   UNL     1      35.459  -4.306  -1.067  1.00  0.00     0.247 C 
ATOM     20  O   UNL     1      34.563  -3.481  -1.191  1.00  0.00    -0.270 OA
ATOM     21  H   UNL     1      37.114  -5.083  -0.159  1.00  0.00     0.170 HD
BRANCH  19  22
ATOM     22  C   UNL     1      35.362  -5.575  -1.843  1.00  0.00     0.064 C 
ATOM     23  C   UNL     1      34.259  -6.331  -1.943  1.00  0.00     0.014 C 
ENDBRANCH  19  22
ENDBRANCH  13  18
ENDBRANCH   1  12
BRANCH  10  24
ATOM     24  C   UNL     1      39.054   1.822   1.338  1.00  0.00     0.157 A 
ATOM     25  O   UNL     1      38.337   2.817   0.730  1.00  0.00    -0.454 OA
ATOM     26  C   UNL     1      40.033   1.356   0.466  1.00  0.00     0.005 A 
ATOM     27  C   UNL     1      38.877   3.030  -0.497  1.00  0.00     0.135 A 
ATOM     28  C   UNL     1      39.930   2.155  -0.716  1.00  0.00     0.024 A 
ATOM     29  C   UNL     1      38.441   3.982  -1.415  1.00  0.00     0.048 A 
ATOM     30  C   UNL     1      40.605   2.226  -1.950  1.00  0.00     0.015 A 
ATOM     31  C   UNL     1      39.130   4.041  -2.631  1.00  0.00     0.007 A 
ATOM     32  C   UNL     1      40.194   3.172  -2.911  1.00  0.00    -0.050 A 
ATOM     33  C   UNL     1      40.982   0.235   0.699  1.00  0.00     0.049 C 
ATOM     34  C   UNL     1      40.935   3.273  -4.214  1.00  0.00     0.044 C 
ENDBRANCH  10  24
BRANCH   8  35
ATOM     35  N   UNL     1      40.339   3.865   3.279  1.00  0.00    -0.382 N 
ATOM     36  H   UNL     1      40.673   3.334   2.482  1.00  0.00     0.158 HD
ATOM     37  H   UNL     1      41.027   4.518   3.636  1.00  0.00     0.158 HD
ENDBRANCH   8  35
TORSDOF 5
ENDMDL
MODEL 6
REMARK minimizedAffinity -6.49865246
REMARK CNNscore 0.293913901
REMARK CNNaffinity 5.65574503
REMARK SMILES C=CC(=O)Nc1ccc(-n2nc3c(=O)[nH]nc(N)c3c2-c2oc3ccc(C)cc3c2C)cc1
REMARK SMILES IDX 10 1 11 2 12 3 13 4 14 5 15 6 16 7 17 8 19 9 20 10 9 12 6 13
REMARK SMILES IDX 7 14 33 15 8 16 32 17 5 18 3 19 4 20 2 22 1 23 21 24 22 25
REMARK SMILES IDX 30 26 23 27 29 28 24 29 28 30 25 31 26 32 31 33 27 34 18 35
REMARK H PARENT 15 11 5 21 18 36 18 37
ROOT
ATOM      1  N   UNL     1      14.928  -7.819  -1.079  1.00  0.00    -0.228 N 
ATOM      2  N   UNL     1      13.952  -7.035  -1.621  1.00  0.00    -0.161 NA
ATOM      3  C   UNL     1      12.963  -7.051  -0.722  1.00  0.00     0.164 A 
ATOM      4  C   UNL     1      11.659  -6.417  -0.848  1.00  0.00     0.292 A 
ATOM      5  O   UNL     1      11.265  -5.789  -1.826  1.00  0.00    -0.265 OA
ATOM      6  N   UNL     1      10.864  -6.595   0.279  1.00  0.00    -0.240 N 
ATOM      7  N   UNL     1      11.204  -7.275   1.438  1.00  0.00    -0.154 NA
ATOM      8  C   UNL     1      12.379  -7.830   1.534  1.00  0.00     0.155 A 
ATOM      9  C   UNL     1      13.316  -7.747   0.444  1.00  0.00     0.081 A 
ATOM     10  C   UNL     1      14.619  -8.162   0.240  1.00  0.00     0.122 A 
ATOM     11  H   UNL     1       9.941  -6.175   0.258  1.00  0.00     0.194 HD
ENDROOT
BRANCH   1  12
ATOM     12  C   UNL     1      16.055  -8.166  -1.891  1.00  0.00     0.066 A 
ATOM     13  C   UNL     1      18.316  -8.760  -3.489  1.00  0.00     0.041 A 
ATOM     14  C   UNL     1      18.125  -7.477  -2.986  1.00  0.00     0.028 A 
ATOM     15  C   UNL     1      17.363  -9.742  -3.200  1.00  0.00     0.028 A 
ATOM     16  C   UNL     1      17.003  -7.178  -2.201  1.00  0.00     0.030 A 
ATOM     17  C   UNL     1      16.236  -9.450  -2.417  1.00  0.00     0.030 A 
BRANCH  13  18
ATOM     18  N   UNL     1      19.420  -9.147  -4.276  1.00  0.00    -0.323 N 
ATOM     19  C   UNL     1      20.684  -9.472  -3.836  1.00  0.00     0.247 C 
ATOM     20  O   UNL     1      21.118  -9.415  -2.692  1.00  0.00    -0.270 OA
ATOM     21  H   UNL     1      19.281  -9.123  -5.277  1.00  0.00     0.170 HD
BRANCH  19  22
ATOM     22  C   UNL     1      21.620  -9.866  -4.927  1.00  0.00     0.064 C 
ATOM     23  C   UNL     1      22.574 -10.801  -4.820  1.00  0.00     0.014 C 
ENDBRANCH  19  22
ENDBRANCH  13  18
ENDBRANCH   1  12
BRANCH  10  24
ATOM     24  C   UNL     1      15.502  -8.779   1.178  1.00  0.00     0.157 A 
ATOM     25  O   UNL     1      16.146  -8.043   2.135  1.00  0.00    -0.454 OA
ATOM     26  C   UNL     1      15.899 -10.109   1.270  1.00  0.00     0.005 A 
ATOM     27  C   UNL     1      16.909  -8.891   2.871  1.00  0.00     0.135 A 
ATOM     28  C   UNL     1      16.797 -10.183   2.381  1.00  0.00     0.024 A 
ATOM     29  C   UNL     1      17.700  -8.527   3.957  1.00  0.00     0.048 A 
ATOM     30  C   UNL     1      17.533 -11.200   3.019  1.00  0.00     0.015 A 
ATOM     31  C   UNL     1      18.417  -9.554   4.580  1.00  0.00     0.007 A 
ATOM     32  C   UNL     1      18.351 -10.876   4.120  1.00  0.00    -0.050 A 
ATOM     33  C   UNL     1      15.497 -11.229   0.377  1.00  0.00     0.049 C 
ATOM     34  C   UNL     1      19.110 -11.965   4.823  1.00  0.00     0.044 C 
ENDBRANCH  10  24
BRANCH   8  35
ATOM     35  N   UNL     1      12.781  -8.518   2.635  1.00  0.00    -0.382 N 
ATOM     36  H   UNL     1      13.441  -9.274   2.492  1.00  0.00     0.158 HD
ATOM     37  H   UNL     1      12.014  -8.773   3.248  1.00  0.00     0.158 HD
ENDBRANCH   8  35
TORSDOF 5
ENDMDL
MODEL 7
REMARK minimizedAffinity -7.0890193
REMARK CNNscore 0.213910401
REMARK CNNaffinity 5.60678864
REMARK SMILES C=CC(=O)Nc1ccc(-n2nc3c(=O)[nH]nc(N)c3c2-c2oc3ccc(C)cc3c2C)cc1
REMARK SMILES IDX 10 1 11 2 12 3 13 4 14 5 15 6 16 7 17 8 19 9 20 10 9 12 6 13
REMARK SMILES IDX 7 14 33 15 8 16 32 17 5 18 3 19 4 20 2 22 1 23 21 24 22 25
REMARK SMILES IDX 30 26 23 27 29 28 24 29 28 30 25 31 26 32 31 33 27 34 18 35
REMARK H PARENT 15 11 5 21 18 36 18 37
ROOT
ATOM      1  N   UNL     1      38.054   0.310   7.074  1.00  0.00    -0.228 N 
ATOM      2  N   UNL     1      37.633  -0.262   5.910  1.00  0.00    -0.161 NA
ATOM      3  C   UNL     1      38.093   0.544   4.949  1.00  0.00     0.164 A 
ATOM      4  C   UNL     1      37.863   0.415   3.516  1.00  0.00     0.292 A 
ATOM      5  O   UNL     1      37.179  -0.453   2.982  1.00  0.00    -0.265 OA
ATOM      6  N   UNL     1      38.507   1.401   2.777  1.00  0.00    -0.240 N 
ATOM      7  N   UNL     1      39.306   2.422   3.270  1.00  0.00    -0.154 NA
ATOM      8  C   UNL     1      39.504   2.517   4.554  1.00  0.00     0.155 A 
ATOM      9  C   UNL     1      38.894   1.577   5.458  1.00  0.00     0.081 A 
ATOM     10  C   UNL     1      38.937   1.364   6.824  1.00  0.00     0.122 A 
ATOM     11  H   UNL     1      38.389   1.367   1.771  1.00  0.00     0.194 HD
ENDROOT
BRANCH   1  12
ATOM     12  C   UNL     1      37.554  -0.211   8.311  1.00  0.00     0.066 A 
ATOM     13  C   UNL     1      36.646  -1.298  10.763  1.00  0.00     0.041 A 
ATOM     14  C   UNL     1      37.851  -1.718  10.209  1.00  0.00     0.028 A 
ATOM     15  C   UNL     1      35.890  -0.341  10.077  1.00  0.00     0.028 A 
ATOM     16  C   UNL     1      38.300  -1.186   8.992  1.00  0.00     0.030 A 
ATOM     17  C   UNL     1      36.331   0.193   8.858  1.00  0.00     0.030 A 
BRANCH  13  18
ATOM     18  N   UNL     1      36.129  -1.771  11.985  1.00  0.00    -0.323 N 
ATOM     19  C   UNL     1      35.828  -1.030  13.107  1.00  0.00     0.247 C 
ATOM     20  O   UNL     1      36.023   0.165  13.290  1.00  0.00    -0.270 OA
ATOM     21  H   UNL     1      36.024  -2.773  12.064  1.00  0.00     0.170 HD
BRANCH  19  22
ATOM     22  C   UNL     1      35.269  -1.834  14.230  1.00  0.00     0.064 C 
ATOM     23  C   UNL     1      33.968  -2.108  14.406  1.00  0.00     0.014 C 
ENDBRANCH  19  22
ENDBRANCH  13  18
ENDBRANCH   1  12
BRANCH  10  24
ATOM     24  C   UNL     1      39.739   2.039   7.794  1.00  0.00     0.157 A 
ATOM     25  O   UNL     1      39.457   3.321   8.179  1.00  0.00    -0.454 OA
ATOM     26  C   UNL     1      40.893   1.604   8.438  1.00  0.00     0.005 A 
ATOM     27  C   UNL     1      40.382   3.693   9.100  1.00  0.00     0.135 A 
ATOM     28  C   UNL     1      41.296   2.671   9.300  1.00  0.00     0.024 A 
ATOM     29  C   UNL     1      40.422   4.924   9.751  1.00  0.00     0.048 A 
ATOM     30  C   UNL     1      42.341   2.888  10.220  1.00  0.00     0.015 A 
ATOM     31  C   UNL     1      41.463   5.115  10.665  1.00  0.00     0.007 A 
ATOM     32  C   UNL     1      42.423   4.120  10.898  1.00  0.00    -0.050 A 
ATOM     33  C   UNL     1      41.588   0.302   8.251  1.00  0.00     0.049 C 
ATOM     34  C   UNL     1      43.516   4.340  11.905  1.00  0.00     0.044 C 
ENDBRANCH  10  24
BRANCH   8  35
ATOM     35  N   UNL     1      40.269   3.493   5.110  1.00  0.00    -0.382 N 
ATOM     36  H   UNL     1      40.023   3.795   6.047  1.00  0.00     0.158 HD
ATOM     37  H   UNL     1      40.451   4.266   4.480  1.00  0.00     0.158 HD
ENDBRANCH   8  35
TORSDOF 5
ENDMDL
MODEL 8
REMARK minimizedAffinity -6.47453165
REMARK CNNscore 0.186361402
REMARK CNNaffinity 6.17347145
REMARK SMILES C=CC(=O)Nc1ccc(-n2nc3c(=O)[nH]nc(N)c3c2-c2oc3ccc(C)cc3c2C)cc1
REMARK SMILES IDX 10 1 11 2 12 3 13 4 14 5 15 6 16 7 17 8 19 9 20 10 9 12 6 13
REMARK SMILES IDX 7 14 33 15 8 16 32 17 5 18 3 19 4 20 2 22 1 23 21 24 22 25
REMARK SMILES IDX 30 26 23 27 29 28 24 29 28 30 25 31 26 32 31 33 27 34 18 35
REMARK H PARENT 15 11 5 21 18 36 18 37
ROOT
ATOM      1  N   UNL     1       1.131   5.103 -17.965  1.00  0.00    -0.228 N 
ATOM      2  N   UNL     1       2.400   5.017 -18.459  1.00  0.00    -0.161 NA
ATOM      3  C   UNL     1       3.081   5.969 -17.816  1.00  0.00     0.164 A 
ATOM      4  C   UNL     1       4.475   6.337 -18.024  1.00  0.00     0.292 A 
ATOM      5  O   UNL     1       5.226   5.835 -18.854  1.00  0.00    -0.265 OA
ATOM      6  N   UNL     1       4.896   7.350 -17.170  1.00  0.00    -0.240 N 
ATOM      7  N   UNL     1       4.142   7.984 -16.194  1.00  0.00    -0.154 NA
ATOM      8  C   UNL     1       2.898   7.635 -16.019  1.00  0.00     0.155 A 
ATOM      9  C   UNL     1       2.307   6.607 -16.835  1.00  0.00     0.081 A 
ATOM     10  C   UNL     1       1.076   5.979 -16.878  1.00  0.00     0.122 A 
ATOM     11  H   UNL     1       5.859   7.653 -17.261  1.00  0.00     0.194 HD
ENDROOT
BRANCH   1  12
ATOM     12  C   UNL     1       0.098   4.339 -18.599  1.00  0.00     0.066 A 
ATOM     13  C   UNL     1      -1.889   2.748 -19.839  1.00  0.00     0.041 A 
ATOM     14  C   UNL     1      -0.708   2.172 -19.382  1.00  0.00     0.028 A 
ATOM     15  C   UNL     1      -2.066   4.127 -19.684  1.00  0.00     0.028 A 
ATOM     16  C   UNL     1       0.281   2.958 -18.774  1.00  0.00     0.030 A 
ATOM     17  C   UNL     1      -1.080   4.921 -19.080  1.00  0.00     0.030 A 
BRANCH  13  18
ATOM     18  N   UNL     1      -2.936   2.030 -20.449  1.00  0.00    -0.323 N 
ATOM     19  C   UNL     1      -3.175   1.888 -21.798  1.00  0.00     0.247 C 
ATOM     20  O   UNL     1      -2.575   2.417 -22.726  1.00  0.00    -0.270 OA
ATOM     21  H   UNL     1      -3.620   1.626 -19.824  1.00  0.00     0.170 HD
BRANCH  19  22
ATOM     22  C   UNL     1      -4.357   1.037 -22.117  1.00  0.00     0.064 C 
ATOM     23  C   UNL     1      -4.776  -0.002 -21.381  1.00  0.00     0.014 C 
ENDBRANCH  19  22
ENDBRANCH  13  18
ENDBRANCH   1  12
BRANCH  10  24
ATOM     24  C   UNL     1      -0.026   6.144 -15.985  1.00  0.00     0.157 A 
ATOM     25  O   UNL     1      -0.170   5.347 -14.882  1.00  0.00    -0.454 OA
ATOM     26  C   UNL     1      -1.106   7.017 -16.071  1.00  0.00     0.005 A 
ATOM     27  C   UNL     1      -1.298   5.732 -14.232  1.00  0.00     0.135 A 
ATOM     28  C   UNL     1      -1.919   6.762 -14.922  1.00  0.00     0.024 A 
ATOM     29  C   UNL     1      -1.776   5.177 -13.048  1.00  0.00     0.048 A 
ATOM     30  C   UNL     1      -3.118   7.282 -14.397  1.00  0.00     0.015 A 
ATOM     31  C   UNL     1      -2.963   5.714 -12.540  1.00  0.00     0.007 A 
ATOM     32  C   UNL     1      -3.641   6.747 -13.202  1.00  0.00    -0.050 A 
ATOM     33  C   UNL     1      -1.380   8.001 -17.152  1.00  0.00     0.049 C 
ATOM     34  C   UNL     1      -4.900   7.325 -12.622  1.00  0.00     0.044 C 
ENDBRANCH  10  24
BRANCH   8  35
ATOM     35  N   UNL     1       2.096   8.214 -15.088  1.00  0.00    -0.382 N 
ATOM     36  H   UNL     1       1.104   8.257 -15.295  1.00  0.00     0.158 HD
ATOM     37  H   UNL     1       2.464   9.090 -14.732  1.00  0.00     0.158 HD
ENDBRANCH   8  35
TORSDOF 5
ENDMDL
MODEL 9
REMARK minimizedAffinity -5.46881247
REMARK CNNscore 0.168485954
REMARK CNNaffinity 6.35526657
REMARK SMILES C=CC(=O)Nc1ccc(-n2nc3c(=O)[nH]nc(N)c3c2-c2oc3ccc(C)cc3c2C)cc1
REMARK SMILES IDX 10 1 11 2 12 3 13 4 14 5 15 6 16 7 17 8 19 9 20 10 9 12 6 13
REMARK SMILES IDX 7 14 33 15 8 16 32 17 5 18 3 19 4 20 2 22 1 23 21 24 22 25
REMARK SMILES IDX 30 26 23 27 29 28 24 29 28 30 25 31 26 32 31 33 27 34 18 35
REMARK H PARENT 15 11 5 21 18 36 18 37
ROOT
ATOM      1  N   UNL     1      -1.769   6.274 -17.109  1.00  0.00    -0.228 N 
ATOM      2  N   UNL     1      -3.054   5.868 -17.322  1.00  0.00    -0.161 NA
ATOM      3  C   UNL     1      -3.169   5.783 -18.651  1.00  0.00     0.164 A 
ATOM      4  C   UNL     1      -4.370   5.449 -19.404  1.00  0.00     0.292 A 
ATOM      5  O   UNL     1      -5.473   5.220 -18.917  1.00  0.00    -0.265 OA
ATOM      6  N   UNL     1      -4.151   5.413 -20.776  1.00  0.00    -0.240 N 
ATOM      7  N   UNL     1      -2.953   5.645 -21.434  1.00  0.00    -0.154 NA
ATOM      8  C   UNL     1      -1.888   5.937 -20.742  1.00  0.00     0.155 A 
ATOM      9  C   UNL     1      -1.953   6.025 -19.307  1.00  0.00     0.081 A 
ATOM     10  C   UNL     1      -1.035   6.253 -18.298  1.00  0.00     0.122 A 
ATOM     11  H   UNL     1      -4.948   5.184 -21.360  1.00  0.00     0.194 HD
ENDROOT
BRANCH   1  12
ATOM     12  C   UNL     1      -1.382   6.651 -15.783  1.00  0.00     0.066 A 
ATOM     13  C   UNL     1      -0.625   7.492 -13.188  1.00  0.00     0.041 A 
ATOM     14  C   UNL     1      -0.900   8.428 -14.180  1.00  0.00     0.028 A 
ATOM     15  C   UNL     1      -0.718   6.133 -13.504  1.00  0.00     0.028 A 
ATOM     16  C   UNL     1      -1.268   8.015 -15.468  1.00  0.00     0.030 A 
ATOM     17  C   UNL     1      -1.083   5.712 -14.791  1.00  0.00     0.030 A 
BRANCH  13  18
ATOM     18  N   UNL     1      -0.260   7.822 -11.867  1.00  0.00    -0.323 N 
ATOM     19  C   UNL     1       0.985   7.700 -11.291  1.00  0.00     0.247 C 
ATOM     20  O   UNL     1       1.995   7.213 -11.783  1.00  0.00    -0.270 OA
ATOM     21  H   UNL     1      -1.011   8.125 -11.262  1.00  0.00     0.170 HD
BRANCH  19  22
ATOM     22  C   UNL     1       1.044   8.165  -9.876  1.00  0.00     0.064 C 
ATOM     23  C   UNL     1       1.888   9.095  -9.407  1.00  0.00     0.014 C 
ENDBRANCH  19  22
ENDBRANCH  13  18
ENDBRANCH   1  12
BRANCH  10  24
ATOM     24  C   UNL     1       0.381   6.399 -18.415  1.00  0.00     0.157 A 
ATOM     25  O   UNL     1       0.933   7.478 -19.052  1.00  0.00    -0.454 OA
ATOM     26  C   UNL     1       1.392   5.535 -18.005  1.00  0.00     0.005 A 
ATOM     27  C   UNL     1       2.283   7.343 -19.008  1.00  0.00     0.135 A 
ATOM     28  C   UNL     1       2.625   6.159 -18.373  1.00  0.00     0.024 A 
ATOM     29  C   UNL     1       3.201   8.251 -19.529  1.00  0.00     0.048 A 
ATOM     30  C   UNL     1       3.993   5.846 -18.247  1.00  0.00     0.015 A 
ATOM     31  C   UNL     1       4.554   7.924 -19.385  1.00  0.00     0.007 A 
ATOM     32  C   UNL     1       4.957   6.735 -18.763  1.00  0.00    -0.050 A 
ATOM     33  C   UNL     1       1.228   4.213 -17.342  1.00  0.00     0.049 C 
ATOM     34  C   UNL     1       6.417   6.420 -18.598  1.00  0.00     0.044 C 
ENDBRANCH  10  24
BRANCH   8  35
ATOM     35  N   UNL     1      -0.682   6.183 -21.317  1.00  0.00    -0.382 N 
ATOM     36  H   UNL     1      -0.061   6.823 -20.832  1.00  0.00     0.158 HD
ATOM     37  H   UNL     1      -0.743   6.369 -22.312  1.00  0.00     0.158 HD
ENDBRANCH   8  35
TORSDOF 5
ENDMDL
