MODEL 1
REMARK minimizedAffinity -7.92468119
REMARK CNNscore 0.624397397
REMARK CNNaffinity 7.7943635
REMARK SMILES CCN(CC)CCCCNc1ncc2cc(-c3cc(OC)cc(OC)c3)c(NC(=O)NC(C)(C)C)nc2n1
REMARK SMILES IDX 8 1 7 2 6 3 3 4 2 5 1 6 4 7 5 8 9 9 10 10 11 12 12 13 38 14
REMARK SMILES IDX 13 15 37 16 14 17 36 18 15 19 27 20 16 21 28 22 29 23 30 24
REMARK SMILES IDX 31 25 32 28 33 29 34 30 35 31 17 32 18 33 26 34 19 35 23 36
REMARK SMILES IDX 22 37 20 38 21 39 24 40 25 41
REMARK H PARENT 10 11 28 26 31 27
ROOT
ATOM      1  C   UNL     1      15.039  -1.566 -10.617  1.00  0.00     0.023 C 
ENDROOT
BRANCH   1   2
ATOM      2  C   UNL     1      14.961  -2.651  -9.530  1.00  0.00     0.017 C 
BRANCH   2   3
ATOM      3  C   UNL     1      13.693  -3.512  -9.608  1.00  0.00     0.084 C 
BRANCH   3   4
ATOM      4  N   UNL     1      12.484  -2.974  -8.969  1.00  0.00    -0.304 NA
BRANCH   4   5
ATOM      5  C   UNL     1      12.731  -1.942  -7.958  1.00  0.00     0.081 C 
ATOM      6  C   UNL     1      11.521  -1.382  -7.218  1.00  0.00     0.021 C 
ENDBRANCH   4   5
BRANCH   4   7
ATOM      7  C   UNL     1      11.342  -2.700  -9.839  1.00  0.00     0.081 C 
ATOM      8  C   UNL     1      10.587  -3.955 -10.268  1.00  0.00     0.021 C 
ENDBRANCH   4   7
ENDBRANCH   3   4
ENDBRANCH   2   3
ENDBRANCH   1   2
BRANCH   1   9
ATOM      9  C   UNL     1      15.062  -2.101 -12.052  1.00  0.00     0.116 C 
BRANCH   9  10
ATOM     10  N   UNL     1      15.527  -1.080 -12.969  1.00  0.00    -0.354 N 
ATOM     11  H   UNL     1      15.501  -0.126 -12.619  1.00  0.00     0.163 HD
BRANCH  10  12
ATOM     12  C   UNL     1      16.827  -1.261 -13.425  1.00  0.00     0.224 A 
ATOM     13  N   UNL     1      17.402  -0.343 -14.210  1.00  0.00    -0.221 NA
ATOM     14  N   UNL     1      17.419  -2.390 -13.034  1.00  0.00    -0.193 NA
ATOM     15  C   UNL     1      18.658  -0.597 -14.600  1.00  0.00     0.127 A 
ATOM     16  C   UNL     1      18.665  -2.630 -13.426  1.00  0.00     0.167 A 
ATOM     17  C   UNL     1      19.348  -1.738 -14.240  1.00  0.00     0.039 A 
ATOM     18  N   UNL     1      19.252  -3.760 -13.033  1.00  0.00    -0.210 NA
ATOM     19  C   UNL     1      20.656  -2.027 -14.657  1.00  0.00     0.026 A 
ATOM     20  C   UNL     1      20.517  -4.053 -13.406  1.00  0.00     0.144 A 
ATOM     21  C   UNL     1      21.265  -3.216 -14.250  1.00  0.00     0.026 A 
BRANCH  20  22
ATOM     22  N   UNL     1      21.106  -5.251 -12.956  1.00  0.00    -0.292 N 
ATOM     23  C   UNL     1      21.377  -5.575 -11.646  1.00  0.00     0.320 C 
ATOM     24  O   UNL     1      21.263  -4.854 -10.668  1.00  0.00    -0.248 OA
ATOM     25  N   UNL     1      21.846  -6.881 -11.578  1.00  0.00    -0.333 N 
ATOM     26  H   UNL     1      21.557  -5.830 -13.645  1.00  0.00     0.173 HD
ATOM     27  H   UNL     1      21.418  -7.482 -12.268  1.00  0.00     0.165 HD
BRANCH  25  28
ATOM     28  C   UNL     1      22.212  -7.548 -10.317  1.00  0.00     0.033 C 
ATOM     29  C   UNL     1      23.298  -6.765  -9.558  1.00  0.00     0.034 C 
ATOM     30  C   UNL     1      20.979  -7.749  -9.422  1.00  0.00     0.034 C 
ATOM     31  C   UNL     1      22.790  -8.931 -10.673  1.00  0.00     0.034 C 
ENDBRANCH  25  28
ENDBRANCH  20  22
BRANCH  21  32
ATOM     32  C   UNL     1      22.617  -3.531 -14.731  1.00  0.00    -0.007 A 
ATOM     33  C   UNL     1      23.588  -4.051 -13.864  1.00  0.00     0.055 A 
ATOM     34  C   UNL     1      22.972  -3.306 -16.068  1.00  0.00     0.055 A 
ATOM     35  C   UNL     1      24.878  -4.346 -14.318  1.00  0.00     0.123 A 
ATOM     36  C   UNL     1      24.258  -3.595 -16.535  1.00  0.00     0.123 A 
ATOM     37  C   UNL     1      25.210  -4.117 -15.656  1.00  0.00     0.092 A 
BRANCH  35  38
ATOM     38  O   UNL     1      25.713  -4.847 -13.356  1.00  0.00    -0.497 OA
ATOM     39  C   UNL     1      25.271  -5.995 -12.644  1.00  0.00     0.278 C 
ENDBRANCH  35  38
BRANCH  36  40
ATOM     40  O   UNL     1      24.449  -3.324 -17.862  1.00  0.00    -0.497 OA
ATOM     41  C   UNL     1      24.461  -1.956 -18.249  1.00  0.00     0.278 C 
ENDBRANCH  36  40
ENDBRANCH  21  32
ENDBRANCH  10  12
ENDBRANCH   9  10
ENDBRANCH   1   9
TORSDOF 13
ENDMDL
MODEL 2
REMARK minimizedAffinity -6.20043087
REMARK CNNscore 0.44371286
REMARK CNNaffinity 5.83236933
REMARK SMILES CCN(CC)CCCCNc1ncc2cc(-c3cc(OC)cc(OC)c3)c(NC(=O)NC(C)(C)C)nc2n1
REMARK SMILES IDX 8 1 7 2 6 3 3 4 2 5 1 6 4 7 5 8 9 9 10 10 11 12 12 13 38 14
REMARK SMILES IDX 13 15 37 16 14 17 36 18 15 19 27 20 16 21 28 22 29 23 30 24
REMARK SMILES IDX 31 25 32 28 33 29 34 30 35 31 17 32 18 33 26 34 19 35 23 36
REMARK SMILES IDX 22 37 20 38 21 39 24 40 25 41
REMARK H PARENT 10 11 28 26 31 27
ROOT
ATOM      1  C   UNL     1      39.479   4.720  -1.481  1.00  0.00     0.023 C 
ENDROOT
BRANCH   1   2
ATOM      2  C   UNL     1      39.682   6.106  -0.847  1.00  0.00     0.017 C 
BRANCH   2   3
ATOM      3  C   UNL     1      40.001   7.209  -1.865  1.00  0.00     0.084 C 
BRANCH   3   4
ATOM      4  N   UNL     1      39.211   8.445  -1.775  1.00  0.00    -0.304 NA
BRANCH   4   5
ATOM      5  C   UNL     1      37.966   8.324  -1.012  1.00  0.00     0.081 C 
ATOM      6  C   UNL     1      37.413   9.590  -0.367  1.00  0.00     0.021 C 
ENDBRANCH   4   5
BRANCH   4   7
ATOM      7  C   UNL     1      39.946   9.684  -1.532  1.00  0.00     0.081 C 
ATOM      8  C   UNL     1      41.147   9.873  -2.455  1.00  0.00     0.021 C 
ENDBRANCH   4   7
ENDBRANCH   3   4
ENDBRANCH   2   3
ENDBRANCH   1   2
BRANCH   1   9
ATOM      9  C   UNL     1      39.033   3.629  -0.503  1.00  0.00     0.116 C 
BRANCH   9  10
ATOM     10  N   UNL     1      38.324   4.210   0.618  1.00  0.00    -0.354 N 
ATOM     11  H   UNL     1      37.355   4.466   0.445  1.00  0.00     0.163 HD
BRANCH  10  12
ATOM     12  C   UNL     1      38.286   3.411   1.755  1.00  0.00     0.224 A 
ATOM     13  N   UNL     1      38.001   2.108   1.657  1.00  0.00    -0.221 NA
ATOM     14  N   UNL     1      38.537   4.039   2.904  1.00  0.00    -0.193 NA
ATOM     15  C   UNL     1      37.989   1.414   2.802  1.00  0.00     0.127 A 
ATOM     16  C   UNL     1      38.523   3.341   4.033  1.00  0.00     0.167 A 
ATOM     17  C   UNL     1      38.241   1.982   4.036  1.00  0.00     0.039 A 
ATOM     18  N   UNL     1      38.775   3.974   5.179  1.00  0.00    -0.210 NA
ATOM     19  C   UNL     1      38.212   1.273   5.246  1.00  0.00     0.026 A 
ATOM     20  C   UNL     1      38.771   3.309   6.355  1.00  0.00     0.144 A 
ATOM     21  C   UNL     1      38.469   1.941   6.446  1.00  0.00     0.026 A 
BRANCH  20  22
ATOM     22  N   UNL     1      39.057   4.012   7.542  1.00  0.00    -0.292 N 
ATOM     23  C   UNL     1      40.284   4.520   7.905  1.00  0.00     0.320 C 
ATOM     24  O   UNL     1      41.348   4.360   7.329  1.00  0.00    -0.248 OA
ATOM     25  N   UNL     1      40.156   5.251   9.079  1.00  0.00    -0.333 N 
ATOM     26  H   UNL     1      38.376   3.965   8.282  1.00  0.00     0.173 HD
ATOM     27  H   UNL     1      39.268   5.727   9.143  1.00  0.00     0.165 HD
BRANCH  25  28
ATOM     28  C   UNL     1      41.280   5.946   9.729  1.00  0.00     0.033 C 
ATOM     29  C   UNL     1      42.314   6.434   8.700  1.00  0.00     0.034 C 
ATOM     30  C   UNL     1      40.782   7.123  10.582  1.00  0.00     0.034 C 
ATOM     31  C   UNL     1      41.980   4.932  10.655  1.00  0.00     0.034 C 
ENDBRANCH  25  28
ENDBRANCH  20  22
BRANCH  21  32
ATOM     32  C   UNL     1      38.389   1.199   7.711  1.00  0.00    -0.007 A 
ATOM     33  C   UNL     1      37.165   1.029   8.373  1.00  0.00     0.055 A 
ATOM     34  C   UNL     1      39.541   0.652   8.294  1.00  0.00     0.055 A 
ATOM     35  C   UNL     1      37.088   0.327   9.580  1.00  0.00     0.123 A 
ATOM     36  C   UNL     1      39.478  -0.050   9.502  1.00  0.00     0.123 A 
ATOM     37  C   UNL     1      38.248  -0.212  10.143  1.00  0.00     0.092 A 
BRANCH  35  38
ATOM     38  O   UNL     1      35.826   0.246  10.105  1.00  0.00    -0.497 OA
ATOM     39  C   UNL     1      35.480  -0.954  10.783  1.00  0.00     0.278 C 
ENDBRANCH  35  38
BRANCH  36  40
ATOM     40  O   UNL     1      40.684  -0.523   9.940  1.00  0.00    -0.497 OA
ATOM     41  C   UNL     1      40.839  -1.935  10.016  1.00  0.00     0.278 C 
ENDBRANCH  36  40
ENDBRANCH  21  32
ENDBRANCH  10  12
ENDBRANCH   9  10
ENDBRANCH   1   9
TORSDOF 13
ENDMDL
MODEL 3
REMARK minimizedAffinity -7.45094872
REMARK CNNscore 0.439605296
REMARK CNNaffinity 7.56874847
REMARK SMILES CCN(CC)CCCCNc1ncc2cc(-c3cc(OC)cc(OC)c3)c(NC(=O)NC(C)(C)C)nc2n1
REMARK SMILES IDX 8 1 7 2 6 3 3 4 2 5 1 6 4 7 5 8 9 9 10 10 11 12 12 13 38 14
REMARK SMILES IDX 13 15 37 16 14 17 36 18 15 19 27 20 16 21 28 22 29 23 30 24
REMARK SMILES IDX 31 25 32 28 33 29 34 30 35 31 17 32 18 33 26 34 19 35 23 36
REMARK SMILES IDX 22 37 20 38 21 39 24 40 25 41
REMARK H PARENT 10 11 28 26 31 27
ROOT
ATOM      1  C   UNL     1      14.969  -3.121  -9.830  1.00  0.00     0.023 C 
ENDROOT
BRANCH   1   2
ATOM      2  C   UNL     1      15.932  -3.987  -9.001  1.00  0.00     0.017 C 
BRANCH   2   3
ATOM      3  C   UNL     1      17.091  -4.575  -9.818  1.00  0.00     0.084 C 
BRANCH   3   4
ATOM      4  N   UNL     1      18.356  -4.803  -9.107  1.00  0.00    -0.304 NA
BRANCH   4   5
ATOM      5  C   UNL     1      19.317  -5.651  -9.818  1.00  0.00     0.081 C 
ATOM      6  C   UNL     1      18.862  -6.273 -11.134  1.00  0.00     0.021 C 
ENDBRANCH   4   5
BRANCH   4   7
ATOM      7  C   UNL     1      18.955  -3.651  -8.436  1.00  0.00     0.081 C 
ATOM      8  C   UNL     1      20.482  -3.674  -8.429  1.00  0.00     0.021 C 
ENDBRANCH   4   7
ENDBRANCH   3   4
ENDBRANCH   2   3
ENDBRANCH   1   2
BRANCH   1   9
ATOM      9  C   UNL     1      14.914  -3.474 -11.319  1.00  0.00     0.116 C 
BRANCH   9  10
ATOM     10  N   UNL     1      14.925  -2.274 -12.129  1.00  0.00    -0.354 N 
ATOM     11  H   UNL     1      14.648  -1.417 -11.655  1.00  0.00     0.163 HD
BRANCH  10  12
ATOM     12  C   UNL     1      16.151  -1.981 -12.714  1.00  0.00     0.224 A 
ATOM     13  N   UNL     1      16.360  -0.791 -13.288  1.00  0.00    -0.221 NA
ATOM     14  N   UNL     1      17.057  -2.958 -12.663  1.00  0.00    -0.193 NA
ATOM     15  C   UNL     1      17.572  -0.594 -13.823  1.00  0.00     0.127 A 
ATOM     16  C   UNL     1      18.255  -2.751 -13.197  1.00  0.00     0.167 A 
ATOM     17  C   UNL     1      18.570  -1.548 -13.813  1.00  0.00     0.039 A 
ATOM     18  N   UNL     1      19.157  -3.731 -13.143  1.00  0.00    -0.210 NA
ATOM     19  C   UNL     1      19.836  -1.363 -14.387  1.00  0.00     0.026 A 
ATOM     20  C   UNL     1      20.389  -3.572 -13.673  1.00  0.00     0.144 A 
ATOM     21  C   UNL     1      20.776  -2.396 -14.337  1.00  0.00     0.026 A 
BRANCH  20  22
ATOM     22  N   UNL     1      21.317  -4.627 -13.582  1.00  0.00    -0.292 N 
ATOM     23  C   UNL     1      22.038  -4.974 -12.462  1.00  0.00     0.320 C 
ATOM     24  O   UNL     1      22.087  -4.375 -11.400  1.00  0.00    -0.248 OA
ATOM     25  N   UNL     1      22.759  -6.134 -12.715  1.00  0.00    -0.333 N 
ATOM     26  H   UNL     1      21.642  -5.031 -14.445  1.00  0.00     0.173 HD
ATOM     27  H   UNL     1      22.271  -6.766 -13.333  1.00  0.00     0.165 HD
BRANCH  25  28
ATOM     28  C   UNL     1      23.623  -6.787 -11.716  1.00  0.00     0.033 C 
ATOM     29  C   UNL     1      24.927  -7.303 -12.348  1.00  0.00     0.034 C 
ATOM     30  C   UNL     1      23.937  -5.835 -10.551  1.00  0.00     0.034 C 
ATOM     31  C   UNL     1      22.855  -8.003 -11.162  1.00  0.00     0.034 C 
ENDBRANCH  25  28
ENDBRANCH  20  22
BRANCH  21  32
ATOM     32  C   UNL     1      22.082  -2.209 -14.983  1.00  0.00    -0.007 A 
ATOM     33  C   UNL     1      23.264  -2.622 -14.353  1.00  0.00     0.055 A 
ATOM     34  C   UNL     1      22.178  -1.601 -16.242  1.00  0.00     0.055 A 
ATOM     35  C   UNL     1      24.510  -2.441 -14.964  1.00  0.00     0.123 A 
ATOM     36  C   UNL     1      23.417  -1.411 -16.863  1.00  0.00     0.123 A 
ATOM     37  C   UNL     1      24.583  -1.834 -16.221  1.00  0.00     0.092 A 
BRANCH  35  38
ATOM     38  O   UNL     1      25.570  -2.895 -14.226  1.00  0.00    -0.497 OA
ATOM     39  C   UNL     1      26.855  -2.840 -14.833  1.00  0.00     0.278 C 
ENDBRANCH  35  38
BRANCH  36  40
ATOM     40  O   UNL     1      23.345  -0.807 -18.088  1.00  0.00    -0.497 OA
ATOM     41  C   UNL     1      23.999  -1.455 -19.171  1.00  0.00     0.278 C 
ENDBRANCH  36  40
ENDBRANCH  21  32
ENDBRANCH  10  12
ENDBRANCH   9  10
ENDBRANCH   1   9
TORSDOF 13
ENDMDL
MODEL 4
REMARK minimizedAffinity -7.42460251
REMARK CNNscore 0.286230087
REMARK CNNaffinity 7.01704931
REMARK SMILES CCN(CC)CCCCNc1ncc2cc(-c3cc(OC)cc(OC)c3)c(NC(=O)NC(C)(C)C)nc2n1
REMARK SMILES IDX 8 1 7 2 6 3 3 4 2 5 1 6 4 7 5 8 9 9 10 10 11 12 12 13 38 14
REMARK SMILES IDX 13 15 37 16 14 17 36 18 15 19 27 20 16 21 28 22 29 23 30 24
REMARK SMILES IDX 31 25 32 28 33 29 34 30 35 31 17 32 18 33 26 34 19 35 23 36
REMARK SMILES IDX 22 37 20 38 21 39 24 40 25 41
REMARK H PARENT 10 11 28 26 31 27
ROOT
ATOM      1  C   UNL     1      15.077  -3.349 -11.534  1.00  0.00     0.023 C 
ENDROOT
BRANCH   1   2
ATOM      2  C   UNL     1      14.386  -2.066 -11.045  1.00  0.00     0.017 C 
BRANCH   2   3
ATOM      3  C   UNL     1      13.755  -2.198  -9.651  1.00  0.00     0.084 C 
BRANCH   3   4
ATOM      4  N   UNL     1      12.291  -2.304  -9.592  1.00  0.00    -0.304 NA
BRANCH   4   5
ATOM      5  C   UNL     1      11.706  -3.263 -10.534  1.00  0.00     0.081 C 
ATOM      6  C   UNL     1      10.376  -3.902 -10.149  1.00  0.00     0.021 C 
ENDBRANCH   4   5
BRANCH   4   7
ATOM      7  C   UNL     1      11.681  -2.320  -8.264  1.00  0.00     0.081 C 
ATOM      8  C   UNL     1      11.855  -1.011  -7.497  1.00  0.00     0.021 C 
ENDBRANCH   4   7
ENDBRANCH   3   4
ENDBRANCH   2   3
ENDBRANCH   1   2
BRANCH   1   9
ATOM      9  C   UNL     1      16.540  -3.168 -11.948  1.00  0.00     0.116 C 
BRANCH   9  10
ATOM     10  N   UNL     1      16.654  -2.166 -12.989  1.00  0.00    -0.354 N 
ATOM     11  H   UNL     1      16.424  -1.214 -12.716  1.00  0.00     0.163 HD
BRANCH  10  12
ATOM     12  C   UNL     1      17.913  -2.078 -13.571  1.00  0.00     0.224 A 
ATOM     13  N   UNL     1      18.200  -1.081 -14.416  1.00  0.00    -0.221 NA
ATOM     14  N   UNL     1      18.769  -3.043 -13.232  1.00  0.00    -0.193 NA
ATOM     15  C   UNL     1      19.438  -1.071 -14.926  1.00  0.00     0.127 A 
ATOM     16  C   UNL     1      19.994  -3.022 -13.745  1.00  0.00     0.167 A 
ATOM     17  C   UNL     1      20.389  -2.028 -14.629  1.00  0.00     0.039 A 
ATOM     18  N   UNL     1      20.846  -3.990 -13.404  1.00  0.00    -0.210 NA
ATOM     19  C   UNL     1      21.682  -2.043 -15.171  1.00  0.00     0.026 A 
ATOM     20  C   UNL     1      22.102  -4.016 -13.898  1.00  0.00     0.144 A 
ATOM     21  C   UNL     1      22.569  -3.062 -14.818  1.00  0.00     0.026 A 
BRANCH  20  22
ATOM     22  N   UNL     1      22.975  -5.047 -13.501  1.00  0.00    -0.292 N 
ATOM     23  C   UNL     1      23.131  -5.524 -12.219  1.00  0.00     0.320 C 
ATOM     24  O   UNL     1      22.635  -5.075 -11.199  1.00  0.00    -0.248 OA
ATOM     25  N   UNL     1      23.987  -6.618 -12.231  1.00  0.00    -0.333 N 
ATOM     26  H   UNL     1      23.693  -5.320 -14.152  1.00  0.00     0.173 HD
ATOM     27  H   UNL     1      23.894  -7.173 -13.070  1.00  0.00     0.165 HD
BRANCH  25  28
ATOM     28  C   UNL     1      24.352  -7.378 -11.023  1.00  0.00     0.033 C 
ATOM     29  C   UNL     1      25.237  -8.589 -11.363  1.00  0.00     0.034 C 
ATOM     30  C   UNL     1      25.056  -6.477  -9.996  1.00  0.00     0.034 C 
ATOM     31  C   UNL     1      23.047  -7.908 -10.396  1.00  0.00     0.034 C 
ENDBRANCH  25  28
ENDBRANCH  20  22
BRANCH  21  32
ATOM     32  C   UNL     1      23.905  -3.095 -15.428  1.00  0.00    -0.007 A 
ATOM     33  C   UNL     1      24.108  -3.672 -16.689  1.00  0.00     0.055 A 
ATOM     34  C   UNL     1      25.012  -2.559 -14.756  1.00  0.00     0.055 A 
ATOM     35  C   UNL     1      25.380  -3.708 -17.271  1.00  0.00     0.123 A 
ATOM     36  C   UNL     1      26.289  -2.591 -15.325  1.00  0.00     0.123 A 
ATOM     37  C   UNL     1      26.470  -3.166 -16.585  1.00  0.00     0.092 A 
BRANCH  35  38
ATOM     38  O   UNL     1      25.419  -4.304 -18.503  1.00  0.00    -0.497 OA
ATOM     39  C   UNL     1      24.801  -5.578 -18.629  1.00  0.00     0.278 C 
ENDBRANCH  35  38
BRANCH  36  40
ATOM     40  O   UNL     1      27.264  -2.027 -14.549  1.00  0.00    -0.497 OA
ATOM     41  C   UNL     1      27.935  -0.889 -15.074  1.00  0.00     0.278 C 
ENDBRANCH  36  40
ENDBRANCH  21  32
ENDBRANCH  10  12
ENDBRANCH   9  10
ENDBRANCH   1   9
TORSDOF 13
ENDMDL
MODEL 5
REMARK minimizedAffinity -5.46314716
REMARK CNNscore 0.228093177
REMARK CNNaffinity 5.53437805
REMARK SMILES CCN(CC)CCCCNc1ncc2cc(-c3cc(OC)cc(OC)c3)c(NC(=O)NC(C)(C)C)nc2n1
REMARK SMILES IDX 8 1 7 2 6 3 3 4 2 5 1 6 4 7 5 8 9 9 10 10 11 12 12 13 38 14
REMARK SMILES IDX 13 15 37 16 14 17 36 18 15 19 27 20 16 21 28 22 29 23 30 24
REMARK SMILES IDX 31 25 32 28 33 29 34 30 35 31 17 32 18 33 26 34 19 35 23 36
REMARK SMILES IDX 22 37 20 38 21 39 24 40 25 41
REMARK H PARENT 10 11 28 26 31 27
ROOT
ATOM      1  C   UNL     1      13.269  14.179  -6.942  1.00  0.00     0.023 C 
ENDROOT
BRANCH   1   2
ATOM      2  C   UNL     1      12.071  13.549  -7.672  1.00  0.00     0.017 C 
BRANCH   2   3
ATOM      3  C   UNL     1      10.709  13.999  -7.123  1.00  0.00     0.084 C 
BRANCH   3   4
ATOM      4  N   UNL     1       9.744  14.531  -8.094  1.00  0.00    -0.304 NA
BRANCH   4   5
ATOM      5  C   UNL     1      10.341  15.099  -9.306  1.00  0.00     0.081 C 
ATOM      6  C   UNL     1      10.726  16.574  -9.273  1.00  0.00     0.021 C 
ENDBRANCH   4   5
BRANCH   4   7
ATOM      7  C   UNL     1       8.540  13.738  -8.334  1.00  0.00     0.081 C 
ATOM      8  C   UNL     1       8.692  12.726  -9.467  1.00  0.00     0.021 C 
ENDBRANCH   4   7
ENDBRANCH   3   4
ENDBRANCH   2   3
ENDBRANCH   1   2
BRANCH   1   9
ATOM      9  C   UNL     1      14.307  14.827  -7.862  1.00  0.00     0.116 C 
BRANCH   9  10
ATOM     10  N   UNL     1      15.642  14.384  -7.516  1.00  0.00    -0.354 N 
ATOM     11  H   UNL     1      16.140  13.870  -8.238  1.00  0.00     0.163 HD
BRANCH  10  12
ATOM     12  C   UNL     1      16.510  15.402  -7.138  1.00  0.00     0.224 A 
ATOM     13  N   UNL     1      16.049  16.480  -6.495  1.00  0.00    -0.221 NA
ATOM     14  N   UNL     1      17.787  15.218  -7.473  1.00  0.00    -0.193 NA
ATOM     15  C   UNL     1      16.956  17.410  -6.166  1.00  0.00     0.127 A 
ATOM     16  C   UNL     1      18.677  16.146  -7.142  1.00  0.00     0.167 A 
ATOM     17  C   UNL     1      18.299  17.300  -6.470  1.00  0.00     0.039 A 
ATOM     18  N   UNL     1      19.954  15.958  -7.479  1.00  0.00    -0.210 NA
ATOM     19  C   UNL     1      19.256  18.274  -6.151  1.00  0.00     0.026 A 
ATOM     20  C   UNL     1      20.897  16.872  -7.167  1.00  0.00     0.144 A 
ATOM     21  C   UNL     1      20.591  18.077  -6.513  1.00  0.00     0.026 A 
BRANCH  20  22
ATOM     22  N   UNL     1      22.237  16.628  -7.528  1.00  0.00    -0.292 N 
ATOM     23  C   UNL     1      22.664  16.059  -8.707  1.00  0.00     0.320 C 
ATOM     24  O   UNL     1      21.972  15.571  -9.585  1.00  0.00    -0.248 OA
ATOM     25  N   UNL     1      24.052  16.088  -8.760  1.00  0.00    -0.333 N 
ATOM     26  H   UNL     1      22.927  16.674  -6.797  1.00  0.00     0.173 HD
ATOM     27  H   UNL     1      24.439  16.908  -8.315  1.00  0.00     0.165 HD
BRANCH  25  28
ATOM     28  C   UNL     1      24.832  15.574  -9.899  1.00  0.00     0.033 C 
ATOM     29  C   UNL     1      23.936  14.839 -10.911  1.00  0.00     0.034 C 
ATOM     30  C   UNL     1      25.601  16.707 -10.596  1.00  0.00     0.034 C 
ATOM     31  C   UNL     1      25.850  14.559  -9.345  1.00  0.00     0.034 C 
ENDBRANCH  25  28
ENDBRANCH  20  22
BRANCH  21  32
ATOM     32  C   UNL     1      21.577  19.124  -6.216  1.00  0.00    -0.007 A 
ATOM     33  C   UNL     1      21.300  20.133  -5.282  1.00  0.00     0.055 A 
ATOM     34  C   UNL     1      22.816  19.148  -6.871  1.00  0.00     0.055 A 
ATOM     35  C   UNL     1      22.236  21.134  -5.002  1.00  0.00     0.123 A 
ATOM     36  C   UNL     1      23.759  20.145  -6.601  1.00  0.00     0.123 A 
ATOM     37  C   UNL     1      23.466  21.138  -5.664  1.00  0.00     0.092 A 
BRANCH  35  38
ATOM     38  O   UNL     1      21.821  22.047  -4.069  1.00  0.00    -0.497 OA
ATOM     39  C   UNL     1      21.474  21.550  -2.783  1.00  0.00     0.278 C 
ENDBRANCH  35  38
BRANCH  36  40
ATOM     40  O   UNL     1      24.919  20.030  -7.318  1.00  0.00    -0.497 OA
ATOM     41  C   UNL     1      25.702  18.862  -7.102  1.00  0.00     0.278 C 
ENDBRANCH  36  40
ENDBRANCH  21  32
ENDBRANCH  10  12
ENDBRANCH   9  10
ENDBRANCH   1   9
TORSDOF 13
ENDMDL
MODEL 6
REMARK minimizedAffinity -7.81924677
REMARK CNNscore 0.22623457
REMARK CNNaffinity 7.11623573
REMARK SMILES CCN(CC)CCCCNc1ncc2cc(-c3cc(OC)cc(OC)c3)c(NC(=O)NC(C)(C)C)nc2n1
REMARK SMILES IDX 8 1 7 2 6 3 3 4 2 5 1 6 4 7 5 8 9 9 10 10 11 12 12 13 38 14
REMARK SMILES IDX 13 15 37 16 14 17 36 18 15 19 27 20 16 21 28 22 29 23 30 24
REMARK SMILES IDX 31 25 32 28 33 29 34 30 35 31 17 32 18 33 26 34 19 35 23 36
REMARK SMILES IDX 22 37 20 38 21 39 24 40 25 41
REMARK H PARENT 10 11 28 26 31 27
ROOT
ATOM      1  C   UNL     1      15.877  -4.053  -9.938  1.00  0.00     0.023 C 
ENDROOT
BRANCH   1   2
ATOM      2  C   UNL     1      14.894  -2.871  -9.890  1.00  0.00     0.017 C 
BRANCH   2   3
ATOM      3  C   UNL     1      13.457  -3.249 -10.275  1.00  0.00     0.084 C 
BRANCH   3   4
ATOM      4  N   UNL     1      12.426  -3.080  -9.242  1.00  0.00    -0.304 NA
BRANCH   4   5
ATOM      5  C   UNL     1      12.801  -2.193  -8.138  1.00  0.00     0.081 C 
ATOM      6  C   UNL     1      11.682  -1.422  -7.445  1.00  0.00     0.021 C 
ENDBRANCH   4   5
BRANCH   4   7
ATOM      7  C   UNL     1      11.048  -2.916  -9.701  1.00  0.00     0.081 C 
ATOM      8  C   UNL     1      10.500  -4.138 -10.435  1.00  0.00     0.021 C 
ENDBRANCH   4   7
ENDBRANCH   3   4
ENDBRANCH   2   3
ENDBRANCH   1   2
BRANCH   1   9
ATOM      9  C   UNL     1      16.740  -4.114 -11.200  1.00  0.00     0.116 C 
BRANCH   9  10
ATOM     10  N   UNL     1      16.466  -2.981 -12.061  1.00  0.00    -0.354 N 
ATOM     11  H   UNL     1      16.138  -2.139 -11.594  1.00  0.00     0.163 HD
BRANCH  10  12
ATOM     12  C   UNL     1      17.544  -2.567 -12.833  1.00  0.00     0.224 A 
ATOM     13  N   UNL     1      17.464  -1.450 -13.564  1.00  0.00    -0.221 NA
ATOM     14  N   UNL     1      18.617  -3.357 -12.788  1.00  0.00    -0.193 NA
ATOM     15  C   UNL     1      18.551  -1.124 -14.275  1.00  0.00     0.127 A 
ATOM     16  C   UNL     1      19.690  -3.024 -13.496  1.00  0.00     0.167 A 
ATOM     17  C   UNL     1      19.706  -1.882 -14.285  1.00  0.00     0.039 A 
ATOM     18  N   UNL     1      20.760  -3.818 -13.448  1.00  0.00    -0.210 NA
ATOM     19  C   UNL     1      20.845  -1.565 -15.040  1.00  0.00     0.026 A 
ATOM     20  C   UNL     1      21.875  -3.524 -14.151  1.00  0.00     0.144 A 
ATOM     21  C   UNL     1      21.961  -2.403 -14.993  1.00  0.00     0.026 A 
BRANCH  20  22
ATOM     22  N   UNL     1      22.989  -4.382 -14.062  1.00  0.00    -0.292 N 
ATOM     23  C   UNL     1      23.332  -5.149 -12.971  1.00  0.00     0.320 C 
ATOM     24  O   UNL     1      22.809  -5.140 -11.869  1.00  0.00    -0.248 OA
ATOM     25  N   UNL     1      24.418  -5.953 -13.291  1.00  0.00    -0.333 N 
ATOM     26  H   UNL     1      23.709  -4.277 -14.757  1.00  0.00     0.173 HD
ATOM     27  H   UNL     1      24.406  -6.254 -14.256  1.00  0.00     0.165 HD
BRANCH  25  28
ATOM     28  C   UNL     1      25.025  -6.911 -12.351  1.00  0.00     0.033 C 
ATOM     29  C   UNL     1      26.440  -7.319 -12.797  1.00  0.00     0.034 C 
ATOM     30  C   UNL     1      25.062  -6.336 -10.926  1.00  0.00     0.034 C 
ATOM     31  C   UNL     1      24.148  -8.177 -12.347  1.00  0.00     0.034 C 
ENDBRANCH  25  28
ENDBRANCH  20  22
BRANCH  21  32
ATOM     32  C   UNL     1      23.131  -2.087 -15.824  1.00  0.00    -0.007 A 
ATOM     33  C   UNL     1      22.986  -1.755 -17.178  1.00  0.00     0.055 A 
ATOM     34  C   UNL     1      24.423  -2.123 -15.284  1.00  0.00     0.055 A 
ATOM     35  C   UNL     1      24.098  -1.458 -17.972  1.00  0.00     0.123 A 
ATOM     36  C   UNL     1      25.544  -1.831 -16.067  1.00  0.00     0.123 A 
ATOM     37  C   UNL     1      25.378  -1.497 -17.413  1.00  0.00     0.092 A 
BRANCH  35  38
ATOM     38  O   UNL     1      23.796  -1.153 -19.272  1.00  0.00    -0.497 OA
ATOM     39  C   UNL     1      24.649  -0.232 -19.939  1.00  0.00     0.278 C 
ENDBRANCH  35  38
BRANCH  36  40
ATOM     40  O   UNL     1      26.734  -1.907 -15.396  1.00  0.00    -0.497 OA
ATOM     41  C   UNL     1      26.902  -2.992 -14.493  1.00  0.00     0.278 C 
ENDBRANCH  36  40
ENDBRANCH  21  32
ENDBRANCH  10  12
ENDBRANCH   9  10
ENDBRANCH   1   9
TORSDOF 13
ENDMDL
MODEL 7
REMARK minimizedAffinity -5.68788528
REMARK CNNscore 0.184565395
REMARK CNNaffinity 5.48472452
REMARK SMILES CCN(CC)CCCCNc1ncc2cc(-c3cc(OC)cc(OC)c3)c(NC(=O)NC(C)(C)C)nc2n1
REMARK SMILES IDX 8 1 7 2 6 3 3 4 2 5 1 6 4 7 5 8 9 9 10 10 11 12 12 13 38 14
REMARK SMILES IDX 13 15 37 16 14 17 36 18 15 19 27 20 16 21 28 22 29 23 30 24
REMARK SMILES IDX 31 25 32 28 33 29 34 30 35 31 17 32 18 33 26 34 19 35 23 36
REMARK SMILES IDX 22 37 20 38 21 39 24 40 25 41
REMARK H PARENT 10 11 28 26 31 27
ROOT
ATOM      1  C   UNL     1      38.575  10.438  -0.930  1.00  0.00     0.023 C 
ENDROOT
BRANCH   1   2
ATOM      2  C   UNL     1      38.693  10.051  -2.414  1.00  0.00     0.017 C 
BRANCH   2   3
ATOM      3  C   UNL     1      37.702  10.790  -3.325  1.00  0.00     0.084 C 
BRANCH   3   4
ATOM      4  N   UNL     1      38.245  11.874  -4.155  1.00  0.00    -0.304 NA
BRANCH   4   5
ATOM      5  C   UNL     1      38.408  11.539  -5.573  1.00  0.00     0.081 C 
ATOM      6  C   UNL     1      38.029  10.127  -6.008  1.00  0.00     0.021 C 
ENDBRANCH   4   5
BRANCH   4   7
ATOM      7  C   UNL     1      37.724  13.218  -3.913  1.00  0.00     0.081 C 
ATOM      8  C   UNL     1      38.259  13.857  -2.633  1.00  0.00     0.021 C 
ENDBRANCH   4   7
ENDBRANCH   3   4
ENDBRANCH   2   3
ENDBRANCH   1   2
BRANCH   1   9
ATOM      9  C   UNL     1      37.432   9.748  -0.181  1.00  0.00     0.116 C 
BRANCH   9  10
ATOM     10  N   UNL     1      37.926   9.094   1.013  1.00  0.00    -0.354 N 
ATOM     11  H   UNL     1      37.341   9.182   1.841  1.00  0.00     0.163 HD
BRANCH  10  12
ATOM     12  C   UNL     1      38.151   7.730   0.876  1.00  0.00     0.224 A 
ATOM     13  N   UNL     1      38.381   7.201  -0.331  1.00  0.00    -0.221 NA
ATOM     14  N   UNL     1      38.107   7.026   2.007  1.00  0.00    -0.193 NA
ATOM     15  C   UNL     1      38.591   5.878  -0.370  1.00  0.00     0.127 A 
ATOM     16  C   UNL     1      38.317   5.716   1.956  1.00  0.00     0.167 A 
ATOM     17  C   UNL     1      38.567   5.073   0.752  1.00  0.00     0.039 A 
ATOM     18  N   UNL     1      38.272   5.016   3.090  1.00  0.00    -0.210 NA
ATOM     19  C   UNL     1      38.764   3.685   0.724  1.00  0.00     0.026 A 
ATOM     20  C   UNL     1      38.477   3.682   3.092  1.00  0.00     0.144 A 
ATOM     21  C   UNL     1      38.708   2.954   1.913  1.00  0.00     0.026 A 
BRANCH  20  22
ATOM     22  N   UNL     1      38.434   2.982   4.314  1.00  0.00    -0.292 N 
ATOM     23  C   UNL     1      39.410   2.993   5.285  1.00  0.00     0.320 C 
ATOM     24  O   UNL     1      40.514   3.510   5.217  1.00  0.00    -0.248 OA
ATOM     25  N   UNL     1      38.969   2.285   6.395  1.00  0.00    -0.333 N 
ATOM     26  H   UNL     1      37.745   2.254   4.405  1.00  0.00     0.173 HD
ATOM     27  H   UNL     1      37.974   2.380   6.544  1.00  0.00     0.165 HD
BRANCH  25  28
ATOM     28  C   UNL     1      39.766   2.120   7.623  1.00  0.00     0.033 C 
ATOM     29  C   UNL     1      41.099   1.405   7.339  1.00  0.00     0.034 C 
ATOM     30  C   UNL     1      40.024   3.476   8.299  1.00  0.00     0.034 C 
ATOM     31  C   UNL     1      38.954   1.237   8.590  1.00  0.00     0.034 C 
ENDBRANCH  25  28
ENDBRANCH  20  22
BRANCH  21  32
ATOM     32  C   UNL     1      38.869   1.495   1.867  1.00  0.00    -0.007 A 
ATOM     33  C   UNL     1      37.759   0.643   1.952  1.00  0.00     0.055 A 
ATOM     34  C   UNL     1      40.141   0.918   1.748  1.00  0.00     0.055 A 
ATOM     35  C   UNL     1      37.911  -0.747   1.913  1.00  0.00     0.123 A 
ATOM     36  C   UNL     1      40.307  -0.470   1.711  1.00  0.00     0.123 A 
ATOM     37  C   UNL     1      39.188  -1.302   1.792  1.00  0.00     0.092 A 
BRANCH  35  38
ATOM     38  O   UNL     1      36.736  -1.444   2.007  1.00  0.00    -0.497 OA
ATOM     39  C   UNL     1      36.634  -2.409   3.046  1.00  0.00     0.278 C 
ENDBRANCH  35  38
BRANCH  36  40
ATOM     40  O   UNL     1      41.607  -0.878   1.590  1.00  0.00    -0.497 OA
ATOM     41  C   UNL     1      42.047  -1.271   0.296  1.00  0.00     0.278 C 
ENDBRANCH  36  40
ENDBRANCH  21  32
ENDBRANCH  10  12
ENDBRANCH   9  10
ENDBRANCH   1   9
TORSDOF 13
ENDMDL
MODEL 8
REMARK minimizedAffinity -5.29157925
REMARK CNNscore 0.149631441
REMARK CNNaffinity 5.85366488
REMARK SMILES CCN(CC)CCCCNc1ncc2cc(-c3cc(OC)cc(OC)c3)c(NC(=O)NC(C)(C)C)nc2n1
REMARK SMILES IDX 8 1 7 2 6 3 3 4 2 5 1 6 4 7 5 8 9 9 10 10 11 12 12 13 38 14
REMARK SMILES IDX 13 15 37 16 14 17 36 18 15 19 27 20 16 21 28 22 29 23 30 24
REMARK SMILES IDX 31 25 32 28 33 29 34 30 35 31 17 32 18 33 26 34 19 35 23 36
REMARK SMILES IDX 22 37 20 38 21 39 24 40 25 41
REMARK H PARENT 10 11 28 26 31 27
ROOT
ATOM      1  C   UNL     1      39.154   1.730   4.955  1.00  0.00     0.023 C 
ENDROOT
BRANCH   1   2
ATOM      2  C   UNL     1      38.401   0.437   5.310  1.00  0.00     0.017 C 
BRANCH   2   3
ATOM      3  C   UNL     1      38.925  -0.804   4.573  1.00  0.00     0.084 C 
BRANCH   3   4
ATOM      4  N   UNL     1      38.367  -1.070   3.240  1.00  0.00    -0.304 NA
BRANCH   4   5
ATOM      5  C   UNL     1      39.286  -1.735   2.311  1.00  0.00     0.081 C 
ATOM      6  C   UNL     1      39.731  -0.948   1.083  1.00  0.00     0.021 C 
ENDBRANCH   4   5
BRANCH   4   7
ATOM      7  C   UNL     1      36.994  -1.567   3.184  1.00  0.00     0.081 C 
ATOM      8  C   UNL     1      36.871  -2.949   2.548  1.00  0.00     0.021 C 
ENDBRANCH   4   7
ENDBRANCH   3   4
ENDBRANCH   2   3
ENDBRANCH   1   2
BRANCH   1   9
ATOM      9  C   UNL     1      38.426   2.642   3.966  1.00  0.00     0.116 C 
BRANCH   9  10
ATOM     10  N   UNL     1      38.566   2.143   2.613  1.00  0.00    -0.354 N 
ATOM     11  H   UNL     1      37.720   1.772   2.188  1.00  0.00     0.163 HD
BRANCH  10  12
ATOM     12  C   UNL     1      39.048   3.073   1.700  1.00  0.00     0.224 A 
ATOM     13  N   UNL     1      40.202   2.858   1.060  1.00  0.00    -0.221 NA
ATOM     14  N   UNL     1      38.291   4.159   1.536  1.00  0.00    -0.193 NA
ATOM     15  C   UNL     1      40.589   3.805   0.195  1.00  0.00     0.127 A 
ATOM     16  C   UNL     1      38.685   5.091   0.676  1.00  0.00     0.167 A 
ATOM     17  C   UNL     1      39.867   4.959  -0.039  1.00  0.00     0.039 A 
ATOM     18  N   UNL     1      37.925   6.175   0.517  1.00  0.00    -0.210 NA
ATOM     19  C   UNL     1      40.269   5.968  -0.926  1.00  0.00     0.026 A 
ATOM     20  C   UNL     1      38.281   7.152  -0.345  1.00  0.00     0.144 A 
ATOM     21  C   UNL     1      39.474   7.106  -1.084  1.00  0.00     0.026 A 
BRANCH  20  22
ATOM     22  N   UNL     1      37.443   8.275  -0.495  1.00  0.00    -0.292 N 
ATOM     23  C   UNL     1      37.431   9.388   0.315  1.00  0.00     0.320 C 
ATOM     24  O   UNL     1      38.052   9.553   1.352  1.00  0.00    -0.248 OA
ATOM     25  N   UNL     1      36.561  10.335  -0.210  1.00  0.00    -0.333 N 
ATOM     26  H   UNL     1      36.649   8.179  -1.106  1.00  0.00     0.173 HD
ATOM     27  H   UNL     1      36.545  10.328  -1.220  1.00  0.00     0.165 HD
BRANCH  25  28
ATOM     28  C   UNL     1      36.330  11.654   0.405  1.00  0.00     0.033 C 
ATOM     29  C   UNL     1      37.600  12.190   1.087  1.00  0.00     0.034 C 
ATOM     30  C   UNL     1      35.818  12.664  -0.634  1.00  0.00     0.034 C 
ATOM     31  C   UNL     1      35.250  11.477   1.491  1.00  0.00     0.034 C 
ENDBRANCH  25  28
ENDBRANCH  20  22
BRANCH  21  32
ATOM     32  C   UNL     1      39.928   8.179  -1.979  1.00  0.00    -0.007 A 
ATOM     33  C   UNL     1      39.016   8.898  -2.765  1.00  0.00     0.055 A 
ATOM     34  C   UNL     1      41.289   8.501  -2.079  1.00  0.00     0.055 A 
ATOM     35  C   UNL     1      39.447   9.916  -3.622  1.00  0.00     0.123 A 
ATOM     36  C   UNL     1      41.733   9.515  -2.934  1.00  0.00     0.123 A 
ATOM     37  C   UNL     1      40.807  10.223  -3.704  1.00  0.00     0.092 A 
BRANCH  35  38
ATOM     38  O   UNL     1      38.440  10.525  -4.322  1.00  0.00    -0.497 OA
ATOM     39  C   UNL     1      38.601  10.633  -5.730  1.00  0.00     0.278 C 
ENDBRANCH  35  38
BRANCH  36  40
ATOM     40  O   UNL     1      43.086   9.711  -2.917  1.00  0.00    -0.497 OA
ATOM     41  C   UNL     1      43.580  10.885  -3.551  1.00  0.00     0.278 C 
ENDBRANCH  36  40
ENDBRANCH  21  32
ENDBRANCH  10  12
ENDBRANCH   9  10
ENDBRANCH   1   9
TORSDOF 13
ENDMDL
MODEL 9
REMARK minimizedAffinity -6.20937061
REMARK CNNscore 0.133041069
REMARK CNNaffinity 5.37690544
REMARK SMILES CCN(CC)CCCCNc1ncc2cc(-c3cc(OC)cc(OC)c3)c(NC(=O)NC(C)(C)C)nc2n1
REMARK SMILES IDX 8 1 7 2 6 3 3 4 2 5 1 6 4 7 5 8 9 9 10 10 11 12 12 13 38 14
REMARK SMILES IDX 13 15 37 16 14 17 36 18 15 19 27 20 16 21 28 22 29 23 30 24
REMARK SMILES IDX 31 25 32 28 33 29 34 30 35 31 17 32 18 33 26 34 19 35 23 36
REMARK SMILES IDX 22 37 20 38 21 39 24 40 25 41
REMARK H PARENT 10 11 28 26 31 27
ROOT
ATOM      1  C   UNL     1      36.764  -7.637   1.876  1.00  0.00     0.023 C 
ENDROOT
BRANCH   1   2
ATOM      2  C   UNL     1      35.713  -7.436   2.980  1.00  0.00     0.017 C 
BRANCH   2   3
ATOM      3  C   UNL     1      35.677  -8.572   4.012  1.00  0.00     0.084 C 
BRANCH   3   4
ATOM      4  N   UNL     1      34.406  -9.295   4.160  1.00  0.00    -0.304 NA
BRANCH   4   5
ATOM      5  C   UNL     1      34.509 -10.583   4.851  1.00  0.00     0.081 C 
ATOM      6  C   UNL     1      34.252 -10.595   6.355  1.00  0.00     0.021 C 
ENDBRANCH   4   5
BRANCH   4   7
ATOM      7  C   UNL     1      33.235  -8.505   4.535  1.00  0.00     0.081 C 
ATOM      8  C   UNL     1      31.928  -9.037   3.951  1.00  0.00     0.021 C 
ENDBRANCH   4   7
ENDBRANCH   3   4
ENDBRANCH   2   3
ENDBRANCH   1   2
BRANCH   1   9
ATOM      9  C   UNL     1      37.507  -6.364   1.463  1.00  0.00     0.116 C 
BRANCH   9  10
ATOM     10  N   UNL     1      36.704  -5.580   0.547  1.00  0.00    -0.354 N 
ATOM     11  H   UNL     1      35.696  -5.686   0.639  1.00  0.00     0.163 HD
BRANCH  10  12
ATOM     12  C   UNL     1      36.927  -4.210   0.609  1.00  0.00     0.224 A 
ATOM     13  N   UNL     1      37.002  -3.485  -0.513  1.00  0.00    -0.221 NA
ATOM     14  N   UNL     1      37.065  -3.708   1.836  1.00  0.00    -0.193 NA
ATOM     15  C   UNL     1      37.215  -2.172  -0.359  1.00  0.00     0.127 A 
ATOM     16  C   UNL     1      37.277  -2.404   1.976  1.00  0.00     0.167 A 
ATOM     17  C   UNL     1      37.368  -1.567   0.873  1.00  0.00     0.039 A 
ATOM     18  N   UNL     1      37.415  -1.907   3.205  1.00  0.00    -0.210 NA
ATOM     19  C   UNL     1      37.613  -0.197   1.048  1.00  0.00     0.026 A 
ATOM     20  C   UNL     1      37.634  -0.589   3.402  1.00  0.00     0.144 A 
ATOM     21  C   UNL     1      37.765   0.319   2.338  1.00  0.00     0.026 A 
BRANCH  20  22
ATOM     22  N   UNL     1      37.759  -0.102   4.717  1.00  0.00    -0.292 N 
ATOM     23  C   UNL     1      38.710  -0.489   5.635  1.00  0.00     0.320 C 
ATOM     24  O   UNL     1      39.529  -1.386   5.515  1.00  0.00    -0.248 OA
ATOM     25  N   UNL     1      38.597   0.290   6.778  1.00  0.00    -0.333 N 
ATOM     26  H   UNL     1      36.980   0.411   5.096  1.00  0.00     0.173 HD
ATOM     27  H   UNL     1      38.312   1.238   6.574  1.00  0.00     0.165 HD
BRANCH  25  28
ATOM     28  C   UNL     1      39.479   0.147   7.949  1.00  0.00     0.033 C 
ATOM     29  C   UNL     1      40.506  -0.981   7.748  1.00  0.00     0.034 C 
ATOM     30  C   UNL     1      40.197   1.469   8.264  1.00  0.00     0.034 C 
ATOM     31  C   UNL     1      38.595  -0.230   9.154  1.00  0.00     0.034 C 
ENDBRANCH  25  28
ENDBRANCH  20  22
BRANCH  21  32
ATOM     32  C   UNL     1      38.068   1.746   2.508  1.00  0.00    -0.007 A 
ATOM     33  C   UNL     1      38.069   2.619   1.412  1.00  0.00     0.055 A 
ATOM     34  C   UNL     1      38.377   2.267   3.772  1.00  0.00     0.055 A 
ATOM     35  C   UNL     1      38.363   3.978   1.570  1.00  0.00     0.123 A 
ATOM     36  C   UNL     1      38.675   3.622   3.945  1.00  0.00     0.123 A 
ATOM     37  C   UNL     1      38.666   4.477   2.840  1.00  0.00     0.092 A 
BRANCH  35  38
ATOM     38  O   UNL     1      38.325   4.702   0.409  1.00  0.00    -0.497 OA
ATOM     39  C   UNL     1      38.665   6.079   0.490  1.00  0.00     0.278 C 
ENDBRANCH  35  38
BRANCH  36  40
ATOM     40  O   UNL     1      38.952   3.977   5.236  1.00  0.00    -0.497 OA
ATOM     41  C   UNL     1      38.046   3.536   6.239  1.00  0.00     0.278 C 
ENDBRANCH  36  40
ENDBRANCH  21  32
ENDBRANCH  10  12
ENDBRANCH   9  10
ENDBRANCH   1   9
TORSDOF 13
ENDMDL
