MODEL 1
REMARK minimizedAffinity -9.84734249
REMARK CNNscore 0.97555238
REMARK CNNaffinity 9.03709507
REMARK SMILES C=CC(=O)N1CCN(CCCn2c(=O)c(-c3c(Cl)c(OC)cc(OC)c3Cl)cc3cnc(NC)nc32)CC1
REMARK SMILES IDX 11 1 10 2 9 3 8 4 3 5 4 6 5 7 6 8 38 9 7 10 37 11 2 12 1 13
REMARK SMILES IDX 12 14 13 15 36 16 14 17 15 18 35 19 29 20 28 21 32 22 30 23
REMARK SMILES IDX 31 24 16 25 17 26 26 27 19 28 23 29 22 30 18 31 27 32 20 33
REMARK SMILES IDX 21 34 24 35 25 36 33 37 34 38
REMARK H PARENT 33 39
ROOT
ATOM      1  C   UNL     1      18.549  -4.564 -11.719  1.00  0.00     0.129 C 
ENDROOT
BRANCH   1   2
ATOM      2  C   UNL     1      18.495  -5.302 -10.374  1.00  0.00     0.038 C 
BRANCH   2   3
ATOM      3  C   UNL     1      19.860  -5.602  -9.738  1.00  0.00     0.086 C 
BRANCH   3   4
ATOM      4  N   UNL     1      20.388  -4.522  -8.891  1.00  0.00    -0.300 NA
ATOM      5  C   UNL     1      21.982  -6.467  -5.348  1.00  0.00     0.246 C 
ATOM      6  O   UNL     1      21.302  -6.633  -4.340  1.00  0.00    -0.270 OA
ATOM      7  N   UNL     1      21.528  -5.850  -6.502  1.00  0.00    -0.337 N 
ATOM      8  C   UNL     1      20.090  -5.591  -6.598  1.00  0.00     0.135 C 
ATOM      9  C   UNL     1      22.269  -5.823  -7.769  1.00  0.00     0.135 C 
ATOM     10  C   UNL     1      19.744  -4.441  -7.562  1.00  0.00     0.106 C 
ATOM     11  C   UNL     1      21.846  -4.659  -8.685  1.00  0.00     0.106 C 
BRANCH   5  12
ATOM     12  C   UNL     1      23.391  -6.920  -5.334  1.00  0.00     0.063 C 
ATOM     13  C   UNL     1      23.763  -7.957  -4.573  1.00  0.00     0.014 C 
ENDBRANCH   5  12
ENDBRANCH   3   4
ENDBRANCH   2   3
ENDBRANCH   1   2
BRANCH   1  14
ATOM     14  N   UNL     1      17.486  -3.596 -11.953  1.00  0.00    -0.292 N 
ATOM     15  C   UNL     1      16.256  -3.780 -11.333  1.00  0.00     0.260 A 
ATOM     16  C   UNL     1      17.723  -2.535 -12.864  1.00  0.00     0.148 A 
ATOM     17  O   UNL     1      16.002  -4.723 -10.583  1.00  0.00    -0.269 OA
ATOM     18  C   UNL     1      15.198  -2.742 -11.580  1.00  0.00     0.051 A 
ATOM     19  N   UNL     1      18.936  -2.430 -13.447  1.00  0.00    -0.195 NA
ATOM     20  C   UNL     1      16.696  -1.647 -13.126  1.00  0.00     0.037 A 
ATOM     21  C   UNL     1      15.415  -1.740 -12.447  1.00  0.00     0.028 A 
ATOM     22  C   UNL     1      19.126  -1.434 -14.317  1.00  0.00     0.224 A 
ATOM     23  C   UNL     1      16.990  -0.665 -14.042  1.00  0.00     0.127 A 
ATOM     24  N   UNL     1      18.183  -0.544 -14.652  1.00  0.00    -0.221 NA
BRANCH  18  25
ATOM     25  C   UNL     1      13.932  -2.797 -10.817  1.00  0.00     0.032 A 
ATOM     26  C   UNL     1      13.842  -2.188  -9.548  1.00  0.00     0.092 A 
ATOM     27  C   UNL     1      12.800  -3.470 -11.321  1.00  0.00     0.092 A 
ATOM     28  C   UNL     1      12.658  -2.266  -8.793  1.00  0.00     0.141 A 
ATOM     29  C   UNL     1      11.607  -3.543 -10.572  1.00  0.00     0.141 A 
ATOM     30  C   UNL     1      11.546  -2.935  -9.314  1.00  0.00     0.096 A 
ATOM     31  Cl  UNL     1      15.201  -1.313  -8.896  1.00  0.00    -0.080 Cl
ATOM     32  Cl  UNL     1      12.848  -4.208 -12.895  1.00  0.00    -0.080 Cl
BRANCH  28  33
ATOM     33  O   UNL     1      12.647  -1.625  -7.579  1.00  0.00    -0.495 OA
ATOM     34  C   UNL     1      11.374  -1.259  -7.056  1.00  0.00     0.278 C 
ENDBRANCH  28  33
BRANCH  29  35
ATOM     35  O   UNL     1      10.555  -4.208 -11.154  1.00  0.00    -0.495 OA
ATOM     36  C   UNL     1       9.478  -4.620 -10.324  1.00  0.00     0.278 C 
ENDBRANCH  29  35
ENDBRANCH  18  25
BRANCH  22  37
ATOM     37  N   UNL     1      20.393  -1.363 -14.879  1.00  0.00    -0.357 N 
ATOM     38  C   UNL     1      21.395  -2.161 -14.211  1.00  0.00     0.143 C 
ATOM     39  H   UNL     1      20.608  -0.377 -14.972  1.00  0.00     0.163 HD
ENDBRANCH  22  37
ENDBRANCH   1  14
TORSDOF 9
ENDMDL
MODEL 2
REMARK minimizedAffinity -9.64495468
REMARK CNNscore 0.96916002
REMARK CNNaffinity 8.93217087
REMARK SMILES C=CC(=O)N1CCN(CCCn2c(=O)c(-c3c(Cl)c(OC)cc(OC)c3Cl)cc3cnc(NC)nc32)CC1
REMARK SMILES IDX 11 1 10 2 9 3 8 4 3 5 4 6 5 7 6 8 38 9 7 10 37 11 2 12 1 13
REMARK SMILES IDX 12 14 13 15 36 16 14 17 15 18 35 19 29 20 28 21 32 22 30 23
REMARK SMILES IDX 31 24 16 25 17 26 26 27 19 28 23 29 22 30 18 31 27 32 20 33
REMARK SMILES IDX 21 34 24 35 25 36 33 37 34 38
REMARK H PARENT 33 39
ROOT
ATOM      1  C   UNL     1      18.684  -4.494 -11.623  1.00  0.00     0.129 C 
ENDROOT
BRANCH   1   2
ATOM      2  C   UNL     1      19.449  -4.275 -10.311  1.00  0.00     0.038 C 
BRANCH   2   3
ATOM      3  C   UNL     1      19.522  -5.498  -9.385  1.00  0.00     0.086 C 
BRANCH   3   4
ATOM      4  N   UNL     1      20.535  -6.493  -9.771  1.00  0.00    -0.300 NA
ATOM      5  C   UNL     1      23.420  -6.564  -6.522  1.00  0.00     0.246 C 
ATOM      6  O   UNL     1      24.423  -5.856  -6.533  1.00  0.00    -0.270 OA
ATOM      7  N   UNL     1      22.472  -6.586  -7.531  1.00  0.00    -0.337 N 
ATOM      8  C   UNL     1      22.558  -5.538  -8.551  1.00  0.00     0.135 C 
ATOM      9  C   UNL     1      21.181  -7.280  -7.436  1.00  0.00     0.135 C 
ATOM     10  C   UNL     1      21.901  -5.936  -9.886  1.00  0.00     0.106 C 
ATOM     11  C   UNL     1      20.580  -7.618  -8.813  1.00  0.00     0.106 C 
BRANCH   5  12
ATOM     12  C   UNL     1      23.214  -7.484  -5.382  1.00  0.00     0.063 C 
ATOM     13  C   UNL     1      22.096  -7.414  -4.648  1.00  0.00     0.014 C 
ENDBRANCH   5  12
ENDBRANCH   3   4
ENDBRANCH   2   3
ENDBRANCH   1   2
BRANCH   1  14
ATOM     14  N   UNL     1      17.591  -3.565 -11.881  1.00  0.00    -0.292 N 
ATOM     15  C   UNL     1      16.362  -3.782 -11.272  1.00  0.00     0.260 A 
ATOM     16  C   UNL     1      17.803  -2.509 -12.805  1.00  0.00     0.148 A 
ATOM     17  O   UNL     1      16.132  -4.723 -10.511  1.00  0.00    -0.269 OA
ATOM     18  C   UNL     1      15.273  -2.783 -11.544  1.00  0.00     0.051 A 
ATOM     19  N   UNL     1      19.018  -2.371 -13.376  1.00  0.00    -0.195 NA
ATOM     20  C   UNL     1      16.749  -1.659 -13.089  1.00  0.00     0.037 A 
ATOM     21  C   UNL     1      15.465  -1.787 -12.422  1.00  0.00     0.028 A 
ATOM     22  C   UNL     1      19.184  -1.381 -14.258  1.00  0.00     0.224 A 
ATOM     23  C   UNL     1      17.020  -0.680 -14.016  1.00  0.00     0.127 A 
ATOM     24  N   UNL     1      18.216  -0.528 -14.615  1.00  0.00    -0.221 NA
BRANCH  18  25
ATOM     25  C   UNL     1      14.001  -2.871 -10.793  1.00  0.00     0.032 A 
ATOM     26  C   UNL     1      12.881  -3.504 -11.369  1.00  0.00     0.092 A 
ATOM     27  C   UNL     1      13.869  -2.313  -9.505  1.00  0.00     0.092 A 
ATOM     28  C   UNL     1      11.653  -3.562 -10.685  1.00  0.00     0.141 A 
ATOM     29  C   UNL     1      12.643  -2.375  -8.810  1.00  0.00     0.141 A 
ATOM     30  C   UNL     1      11.545  -3.004  -9.406  1.00  0.00     0.096 A 
ATOM     31  Cl  UNL     1      13.002  -4.242 -12.944  1.00  0.00    -0.080 Cl
ATOM     32  Cl  UNL     1      15.230  -1.551  -8.736  1.00  0.00    -0.080 Cl
BRANCH  28  33
ATOM     33  O   UNL     1      10.620  -4.218 -11.306  1.00  0.00    -0.495 OA
ATOM     34  C   UNL     1       9.585  -4.725 -10.471  1.00  0.00     0.278 C 
ENDBRANCH  28  33
BRANCH  29  35
ATOM     35  O   UNL     1      12.618  -1.815  -7.556  1.00  0.00    -0.495 OA
ATOM     36  C   UNL     1      11.727  -0.733  -7.321  1.00  0.00     0.278 C 
ENDBRANCH  29  35
ENDBRANCH  18  25
BRANCH  22  37
ATOM     37  N   UNL     1      20.453  -1.275 -14.808  1.00  0.00    -0.357 N 
ATOM     38  C   UNL     1      21.420  -2.212 -14.282  1.00  0.00     0.143 C 
ATOM     39  H   UNL     1      20.711  -0.298 -14.743  1.00  0.00     0.163 HD
ENDBRANCH  22  37
ENDBRANCH   1  14
TORSDOF 9
ENDMDL
MODEL 3
REMARK minimizedAffinity -8.73447037
REMARK CNNscore 0.21485436
REMARK CNNaffinity 7.29451895
REMARK SMILES C=CC(=O)N1CCN(CCCn2c(=O)c(-c3c(Cl)c(OC)cc(OC)c3Cl)cc3cnc(NC)nc32)CC1
REMARK SMILES IDX 11 1 10 2 9 3 8 4 3 5 4 6 5 7 6 8 38 9 7 10 37 11 2 12 1 13
REMARK SMILES IDX 12 14 13 15 36 16 14 17 15 18 35 19 29 20 28 21 32 22 30 23
REMARK SMILES IDX 31 24 16 25 17 26 26 27 19 28 23 29 22 30 18 31 27 32 20 33
REMARK SMILES IDX 21 34 24 35 25 36 33 37 34 38
REMARK H PARENT 33 39
ROOT
ATOM      1  C   UNL     1      16.970  -3.938  -7.833  1.00  0.00     0.129 C 
ENDROOT
BRANCH   1   2
ATOM      2  C   UNL     1      18.243  -3.455  -7.125  1.00  0.00     0.038 C 
BRANCH   2   3
ATOM      3  C   UNL     1      18.949  -4.508  -6.258  1.00  0.00     0.086 C 
BRANCH   3   4
ATOM      4  N   UNL     1      19.244  -5.771  -6.954  1.00  0.00    -0.300 NA
ATOM      5  C   UNL     1      21.639  -8.113  -4.188  1.00  0.00     0.246 C 
ATOM      6  O   UNL     1      22.866  -8.071  -4.198  1.00  0.00    -0.270 OA
ATOM      7  N   UNL     1      20.827  -7.393  -5.048  1.00  0.00    -0.337 N 
ATOM      8  C   UNL     1      21.467  -6.354  -5.857  1.00  0.00     0.135 C 
ATOM      9  C   UNL     1      19.368  -7.290  -4.913  1.00  0.00     0.135 C 
ATOM     10  C   UNL     1      20.689  -6.020  -7.143  1.00  0.00     0.106 C 
ATOM     11  C   UNL     1      18.669  -6.929  -6.237  1.00  0.00     0.106 C 
BRANCH   5  12
ATOM     12  C   UNL     1      20.970  -9.013  -3.222  1.00  0.00     0.063 C 
ATOM     13  C   UNL     1      20.532  -8.542  -2.048  1.00  0.00     0.014 C 
ENDBRANCH   5  12
ENDBRANCH   3   4
ENDBRANCH   2   3
ENDBRANCH   1   2
BRANCH   1  14
ATOM     14  N   UNL     1      16.951  -3.777  -9.281  1.00  0.00    -0.292 N 
ATOM     15  C   UNL     1      18.154  -3.750  -9.974  1.00  0.00     0.260 A 
ATOM     16  C   UNL     1      15.702  -3.582  -9.926  1.00  0.00     0.148 A 
ATOM     17  O   UNL     1      19.257  -3.858  -9.435  1.00  0.00    -0.269 OA
ATOM     18  C   UNL     1      18.086  -3.611 -11.469  1.00  0.00     0.051 A 
ATOM     19  N   UNL     1      14.573  -3.600  -9.185  1.00  0.00    -0.195 NA
ATOM     20  C   UNL     1      15.689  -3.377 -11.293  1.00  0.00     0.037 A 
ATOM     21  C   UNL     1      16.908  -3.419 -12.082  1.00  0.00     0.028 A 
ATOM     22  C   UNL     1      13.412  -3.393  -9.814  1.00  0.00     0.224 A 
ATOM     23  C   UNL     1      14.446  -3.165 -11.841  1.00  0.00     0.127 A 
ATOM     24  N   UNL     1      13.305  -3.159 -11.128  1.00  0.00    -0.221 NA
BRANCH  18  25
ATOM     25  C   UNL     1      19.323  -3.744 -12.270  1.00  0.00     0.032 A 
ATOM     26  C   UNL     1      19.680  -2.740 -13.192  1.00  0.00     0.092 A 
ATOM     27  C   UNL     1      20.158  -4.873 -12.148  1.00  0.00     0.092 A 
ATOM     28  C   UNL     1      20.832  -2.869 -13.990  1.00  0.00     0.141 A 
ATOM     29  C   UNL     1      21.319  -5.005 -12.939  1.00  0.00     0.141 A 
ATOM     30  C   UNL     1      21.648  -3.997 -13.851  1.00  0.00     0.096 A 
ATOM     31  Cl  UNL     1      18.702  -1.306 -13.353  1.00  0.00    -0.080 Cl
ATOM     32  Cl  UNL     1      19.779  -6.124 -11.000  1.00  0.00    -0.080 Cl
BRANCH  28  33
ATOM     33  O   UNL     1      21.121  -1.835 -14.844  1.00  0.00    -0.495 OA
ATOM     34  C   UNL     1      22.431  -1.808 -15.401  1.00  0.00     0.278 C 
ENDBRANCH  28  33
BRANCH  29  35
ATOM     35  O   UNL     1      22.074  -6.135 -12.739  1.00  0.00    -0.495 OA
ATOM     36  C   UNL     1      23.345  -5.992 -12.120  1.00  0.00     0.278 C 
ENDBRANCH  29  35
ENDBRANCH  18  25
BRANCH  22  37
ATOM     37  N   UNL     1      12.281  -3.431  -9.011  1.00  0.00    -0.357 N 
ATOM     38  C   UNL     1      11.028  -3.387  -9.731  1.00  0.00     0.143 C 
ATOM     39  H   UNL     1      12.407  -2.713  -8.308  1.00  0.00     0.163 HD
ENDBRANCH  22  37
ENDBRANCH   1  14
TORSDOF 9
ENDMDL
MODEL 4
REMARK minimizedAffinity -8.8720665
REMARK CNNscore 0.183770761
REMARK CNNaffinity 7.27825403
REMARK SMILES C=CC(=O)N1CCN(CCCn2c(=O)c(-c3c(Cl)c(OC)cc(OC)c3Cl)cc3cnc(NC)nc32)CC1
REMARK SMILES IDX 11 1 10 2 9 3 8 4 3 5 4 6 5 7 6 8 38 9 7 10 37 11 2 12 1 13
REMARK SMILES IDX 12 14 13 15 36 16 14 17 15 18 35 19 29 20 28 21 32 22 30 23
REMARK SMILES IDX 31 24 16 25 17 26 26 27 19 28 23 29 22 30 18 31 27 32 20 33
REMARK SMILES IDX 21 34 24 35 25 36 33 37 34 38
REMARK H PARENT 33 39
ROOT
ATOM      1  C   UNL     1      17.095  -3.625  -7.789  1.00  0.00     0.129 C 
ENDROOT
BRANCH   1   2
ATOM      2  C   UNL     1      18.506  -3.406  -7.227  1.00  0.00     0.038 C 
BRANCH   2   3
ATOM      3  C   UNL     1      18.928  -4.384  -6.121  1.00  0.00     0.086 C 
BRANCH   3   4
ATOM      4  N   UNL     1      19.141  -5.766  -6.579  1.00  0.00    -0.300 NA
ATOM      5  C   UNL     1      23.417  -6.469  -6.267  1.00  0.00     0.246 C 
ATOM      6  O   UNL     1      24.177  -6.268  -7.211  1.00  0.00    -0.270 OA
ATOM      7  N   UNL     1      22.048  -6.268  -6.312  1.00  0.00    -0.337 N 
ATOM      8  C   UNL     1      21.516  -5.557  -7.477  1.00  0.00     0.135 C 
ATOM      9  C   UNL     1      21.167  -6.320  -5.138  1.00  0.00     0.135 C 
ATOM     10  C   UNL     1      20.034  -5.870  -7.754  1.00  0.00     0.106 C 
ATOM     11  C   UNL     1      19.700  -6.612  -5.504  1.00  0.00     0.106 C 
BRANCH   5  12
ATOM     12  C   UNL     1      23.981  -6.995  -5.004  1.00  0.00     0.063 C 
ATOM     13  C   UNL     1      25.307  -7.071  -4.833  1.00  0.00     0.014 C 
ENDBRANCH   5  12
ENDBRANCH   3   4
ENDBRANCH   2   3
ENDBRANCH   1   2
BRANCH   1  14
ATOM     14  N   UNL     1      16.973  -3.546  -9.239  1.00  0.00    -0.292 N 
ATOM     15  C   UNL     1      18.124  -3.547 -10.016  1.00  0.00     0.260 A 
ATOM     16  C   UNL     1      15.679  -3.400  -9.804  1.00  0.00     0.148 A 
ATOM     17  O   UNL     1      19.263  -3.614  -9.551  1.00  0.00    -0.269 OA
ATOM     18  C   UNL     1      17.950  -3.494 -11.507  1.00  0.00     0.051 A 
ATOM     19  N   UNL     1      14.605  -3.386  -8.986  1.00  0.00    -0.195 NA
ATOM     20  C   UNL     1      15.568  -3.273 -11.176  1.00  0.00     0.037 A 
ATOM     21  C   UNL     1      16.729  -3.348 -12.046  1.00  0.00     0.028 A 
ATOM     22  C   UNL     1      13.400  -3.227  -9.542  1.00  0.00     0.224 A 
ATOM     23  C   UNL     1      14.287  -3.104 -11.647  1.00  0.00     0.127 A 
ATOM     24  N   UNL     1      13.199  -3.069 -10.856  1.00  0.00    -0.221 NA
BRANCH  18  25
ATOM     25  C   UNL     1      19.130  -3.660 -12.385  1.00  0.00     0.032 A 
ATOM     26  C   UNL     1      19.915  -4.828 -12.301  1.00  0.00     0.092 A 
ATOM     27  C   UNL     1      19.508  -2.659 -13.303  1.00  0.00     0.092 A 
ATOM     28  C   UNL     1      21.062  -4.985 -13.100  1.00  0.00     0.141 A 
ATOM     29  C   UNL     1      20.653  -2.814 -14.113  1.00  0.00     0.141 A 
ATOM     30  C   UNL     1      21.418  -3.980 -14.007  1.00  0.00     0.096 A 
ATOM     31  Cl  UNL     1      19.468  -6.111 -11.209  1.00  0.00    -0.080 Cl
ATOM     32  Cl  UNL     1      18.554  -1.214 -13.468  1.00  0.00    -0.080 Cl
BRANCH  28  33
ATOM     33  O   UNL     1      21.756  -6.162 -12.975  1.00  0.00    -0.495 OA
ATOM     34  C   UNL     1      23.040  -6.092 -12.365  1.00  0.00     0.278 C 
ENDBRANCH  28  33
BRANCH  29  35
ATOM     35  O   UNL     1      20.932  -1.791 -14.985  1.00  0.00    -0.495 OA
ATOM     36  C   UNL     1      22.281  -1.602 -15.389  1.00  0.00     0.278 C 
ENDBRANCH  29  35
ENDBRANCH  18  25
BRANCH  22  37
ATOM     37  N   UNL     1      12.329  -3.230  -8.661  1.00  0.00    -0.357 N 
ATOM     38  C   UNL     1      12.111  -1.979  -7.971  1.00  0.00     0.143 C 
ATOM     39  H   UNL     1      12.451  -4.041  -8.067  1.00  0.00     0.163 HD
ENDBRANCH  22  37
ENDBRANCH   1  14
TORSDOF 9
ENDMDL
MODEL 5
REMARK minimizedAffinity -6.01313448
REMARK CNNscore 0.137302756
REMARK CNNaffinity 5.94604349
REMARK SMILES C=CC(=O)N1CCN(CCCn2c(=O)c(-c3c(Cl)c(OC)cc(OC)c3Cl)cc3cnc(NC)nc32)CC1
REMARK SMILES IDX 11 1 10 2 9 3 8 4 3 5 4 6 5 7 6 8 38 9 7 10 37 11 2 12 1 13
REMARK SMILES IDX 12 14 13 15 36 16 14 17 15 18 35 19 29 20 28 21 32 22 30 23
REMARK SMILES IDX 31 24 16 25 17 26 26 27 19 28 23 29 22 30 18 31 27 32 20 33
REMARK SMILES IDX 21 34 24 35 25 36 33 37 34 38
REMARK H PARENT 33 39
ROOT
ATOM      1  C   UNL     1      40.821   9.539   0.869  1.00  0.00     0.129 C 
ENDROOT
BRANCH   1   2
ATOM      2  C   UNL     1      42.011   9.747  -0.078  1.00  0.00     0.038 C 
BRANCH   2   3
ATOM      3  C   UNL     1      41.871  10.924  -1.054  1.00  0.00     0.086 C 
BRANCH   3   4
ATOM      4  N   UNL     1      42.155  10.588  -2.458  1.00  0.00    -0.300 NA
ATOM      5  C   UNL     1      38.627  11.781  -4.697  1.00  0.00     0.246 C 
ATOM      6  O   UNL     1      37.707  10.998  -4.921  1.00  0.00    -0.270 OA
ATOM      7  N   UNL     1      39.775  11.453  -3.995  1.00  0.00    -0.337 N 
ATOM      8  C   UNL     1      39.782  10.172  -3.286  1.00  0.00     0.135 C 
ATOM      9  C   UNL     1      40.782  12.430  -3.559  1.00  0.00     0.135 C 
ATOM     10  C   UNL     1      41.199   9.622  -3.042  1.00  0.00     0.106 C 
ATOM     11  C   UNL     1      42.163  11.795  -3.312  1.00  0.00     0.106 C 
BRANCH   5  12
ATOM     12  C   UNL     1      38.533  13.156  -5.235  1.00  0.00     0.063 C 
ATOM     13  C   UNL     1      38.712  13.386  -6.542  1.00  0.00     0.014 C 
ENDBRANCH   5  12
ENDBRANCH   3   4
ENDBRANCH   2   3
ENDBRANCH   1   2
BRANCH   1  14
ATOM     14  N   UNL     1      39.722   8.742   0.338  1.00  0.00    -0.292 N 
ATOM     15  C   UNL     1      39.873   7.365   0.238  1.00  0.00     0.260 A 
ATOM     16  C   UNL     1      38.560   9.412  -0.125  1.00  0.00     0.148 A 
ATOM     17  O   UNL     1      40.892   6.762   0.577  1.00  0.00    -0.269 OA
ATOM     18  C   UNL     1      38.704   6.581  -0.288  1.00  0.00     0.051 A 
ATOM     19  N   UNL     1      38.491  10.756  -0.015  1.00  0.00    -0.195 NA
ATOM     20  C   UNL     1      37.540   8.660  -0.676  1.00  0.00     0.037 A 
ATOM     21  C   UNL     1      37.606   7.210  -0.733  1.00  0.00     0.028 A 
ATOM     22  C   UNL     1      37.395  11.364  -0.478  1.00  0.00     0.224 A 
ATOM     23  C   UNL     1      36.461   9.381  -1.131  1.00  0.00     0.127 A 
ATOM     24  N   UNL     1      36.370  10.721  -1.051  1.00  0.00    -0.221 NA
BRANCH  18  25
ATOM     25  C   UNL     1      38.748   5.102  -0.259  1.00  0.00     0.032 A 
ATOM     26  C   UNL     1      39.088   4.381  -1.421  1.00  0.00     0.092 A 
ATOM     27  C   UNL     1      38.435   4.381   0.912  1.00  0.00     0.092 A 
ATOM     28  C   UNL     1      39.095   2.974  -1.421  1.00  0.00     0.141 A 
ATOM     29  C   UNL     1      38.450   2.971   0.921  1.00  0.00     0.141 A 
ATOM     30  C   UNL     1      38.785   2.279  -0.247  1.00  0.00     0.096 A 
ATOM     31  Cl  UNL     1      39.519   5.225  -2.884  1.00  0.00    -0.080 Cl
ATOM     32  Cl  UNL     1      38.042   5.224   2.382  1.00  0.00    -0.080 Cl
BRANCH  28  33
ATOM     33  O   UNL     1      39.462   2.350  -2.587  1.00  0.00    -0.495 OA
ATOM     34  C   UNL     1      40.760   1.767  -2.625  1.00  0.00     0.278 C 
ENDBRANCH  28  33
BRANCH  29  35
ATOM     35  O   UNL     1      38.144   2.360   2.112  1.00  0.00    -0.495 OA
ATOM     36  C   UNL     1      39.205   1.795   2.870  1.00  0.00     0.278 C 
ENDBRANCH  29  35
ENDBRANCH  18  25
BRANCH  22  37
ATOM     37  N   UNL     1      37.368  12.744  -0.333  1.00  0.00    -0.357 N 
ATOM     38  C   UNL     1      38.083  13.472  -1.356  1.00  0.00     0.143 C 
ATOM     39  H   UNL     1      37.653  12.935   0.621  1.00  0.00     0.163 HD
ENDBRANCH  22  37
ENDBRANCH   1  14
TORSDOF 9
ENDMDL
MODEL 6
REMARK minimizedAffinity -5.99149942
REMARK CNNscore 0.121011123
REMARK CNNaffinity 5.5448513
REMARK SMILES C=CC(=O)N1CCN(CCCn2c(=O)c(-c3c(Cl)c(OC)cc(OC)c3Cl)cc3cnc(NC)nc32)CC1
REMARK SMILES IDX 11 1 10 2 9 3 8 4 3 5 4 6 5 7 6 8 38 9 7 10 37 11 2 12 1 13
REMARK SMILES IDX 12 14 13 15 36 16 14 17 15 18 35 19 29 20 28 21 32 22 30 23
REMARK SMILES IDX 31 24 16 25 17 26 26 27 19 28 23 29 22 30 18 31 27 32 20 33
REMARK SMILES IDX 21 34 24 35 25 36 33 37 34 38
REMARK H PARENT 33 39
ROOT
ATOM      1  C   UNL     1      41.274   1.734   3.775  1.00  0.00     0.129 C 
ENDROOT
BRANCH   1   2
ATOM      2  C   UNL     1      41.112   2.387   5.155  1.00  0.00     0.038 C 
BRANCH   2   3
ATOM      3  C   UNL     1      39.953   1.843   6.002  1.00  0.00     0.086 C 
BRANCH   3   4
ATOM      4  N   UNL     1      40.041   2.168   7.435  1.00  0.00    -0.300 NA
ATOM      5  C   UNL     1      36.473   0.484   9.252  1.00  0.00     0.246 C 
ATOM      6  O   UNL     1      35.444   1.141   9.388  1.00  0.00    -0.270 OA
ATOM      7  N   UNL     1      37.639   0.971   8.686  1.00  0.00    -0.337 N 
ATOM      8  C   UNL     1      37.561   2.265   8.005  1.00  0.00     0.135 C 
ATOM      9  C   UNL     1      38.800   0.139   8.346  1.00  0.00     0.135 C 
ATOM     10  C   UNL     1      38.916   2.992   7.927  1.00  0.00     0.106 C 
ATOM     11  C   UNL     1      40.110   0.945   8.263  1.00  0.00     0.106 C 
BRANCH   5  12
ATOM     12  C   UNL     1      36.495  -0.908   9.754  1.00  0.00     0.063 C 
ATOM     13  C   UNL     1      35.383  -1.470  10.246  1.00  0.00     0.014 C 
ENDBRANCH   5  12
ENDBRANCH   3   4
ENDBRANCH   2   3
ENDBRANCH   1   2
BRANCH   1  14
ATOM     14  N   UNL     1      40.307   2.143   2.765  1.00  0.00    -0.292 N 
ATOM     15  C   UNL     1      40.400   3.415   2.215  1.00  0.00     0.260 A 
ATOM     16  C   UNL     1      39.257   1.249   2.429  1.00  0.00     0.148 A 
ATOM     17  O   UNL     1      41.265   4.235   2.528  1.00  0.00    -0.269 OA
ATOM     18  C   UNL     1      39.399   3.784   1.156  1.00  0.00     0.051 A 
ATOM     19  N   UNL     1      39.217   0.035   3.020  1.00  0.00    -0.195 NA
ATOM     20  C   UNL     1      38.310   1.658   1.510  1.00  0.00     0.037 A 
ATOM     21  C   UNL     1      38.401   2.945   0.841  1.00  0.00     0.028 A 
ATOM     22  C   UNL     1      38.207  -0.779   2.702  1.00  0.00     0.224 A 
ATOM     23  C   UNL     1      37.307   0.751   1.259  1.00  0.00     0.127 A 
ATOM     24  N   UNL     1      37.230  -0.459   1.844  1.00  0.00    -0.221 NA
BRANCH  18  25
ATOM     25  C   UNL     1      39.554   5.058   0.420  1.00  0.00     0.032 A 
ATOM     26  C   UNL     1      38.864   6.211   0.847  1.00  0.00     0.092 A 
ATOM     27  C   UNL     1      40.370   5.149  -0.726  1.00  0.00     0.092 A 
ATOM     28  C   UNL     1      38.969   7.419   0.136  1.00  0.00     0.141 A 
ATOM     29  C   UNL     1      40.487   6.361  -1.439  1.00  0.00     0.141 A 
ATOM     30  C   UNL     1      39.787   7.488  -0.997  1.00  0.00     0.096 A 
ATOM     31  Cl  UNL     1      37.872   6.161   2.280  1.00  0.00    -0.080 Cl
ATOM     32  Cl  UNL     1      41.269   3.764  -1.275  1.00  0.00    -0.080 Cl
BRANCH  28  33
ATOM     33  O   UNL     1      38.285   8.501   0.633  1.00  0.00    -0.495 OA
ATOM     34  C   UNL     1      37.540   9.276  -0.300  1.00  0.00     0.278 C 
ENDBRANCH  28  33
BRANCH  29  35
ATOM     35  O   UNL     1      41.315   6.353  -2.534  1.00  0.00    -0.495 OA
ATOM     36  C   UNL     1      42.044   7.535  -2.834  1.00  0.00     0.278 C 
ENDBRANCH  29  35
ENDBRANCH  18  25
BRANCH  22  37
ATOM     37  N   UNL     1      38.216  -2.018   3.327  1.00  0.00    -0.357 N 
ATOM     38  C   UNL     1      39.530  -2.589   3.516  1.00  0.00     0.143 C 
ATOM     39  H   UNL     1      37.556  -2.596   2.822  1.00  0.00     0.163 HD
ENDBRANCH  22  37
ENDBRANCH   1  14
TORSDOF 9
ENDMDL
MODEL 7
REMARK minimizedAffinity -6.04556751
REMARK CNNscore 0.0998492613
REMARK CNNaffinity 4.81376791
REMARK SMILES C=CC(=O)N1CCN(CCCn2c(=O)c(-c3c(Cl)c(OC)cc(OC)c3Cl)cc3cnc(NC)nc32)CC1
REMARK SMILES IDX 11 1 10 2 9 3 8 4 3 5 4 6 5 7 6 8 38 9 7 10 37 11 2 12 1 13
REMARK SMILES IDX 12 14 13 15 36 16 14 17 15 18 35 19 29 20 28 21 32 22 30 23
REMARK SMILES IDX 31 24 16 25 17 26 26 27 19 28 23 29 22 30 18 31 27 32 20 33
REMARK SMILES IDX 21 34 24 35 25 36 33 37 34 38
REMARK H PARENT 33 39
ROOT
ATOM      1  C   UNL     1      15.140  15.079 -12.702  1.00  0.00     0.129 C 
ENDROOT
BRANCH   1   2
ATOM      2  C   UNL     1      16.166  14.660 -13.765  1.00  0.00     0.038 C 
BRANCH   2   3
ATOM      3  C   UNL     1      16.151  13.171 -14.136  1.00  0.00     0.086 C 
BRANCH   3   4
ATOM      4  N   UNL     1      15.400  12.856 -15.362  1.00  0.00    -0.300 NA
ATOM      5  C   UNL     1      16.002   8.611 -16.063  1.00  0.00     0.246 C 
ATOM      6  O   UNL     1      16.913   8.195 -16.774  1.00  0.00    -0.270 OA
ATOM      7  N   UNL     1      15.761   9.951 -15.810  1.00  0.00    -0.337 N 
ATOM      8  C   UNL     1      16.790  10.905 -16.228  1.00  0.00     0.135 C 
ATOM      9  C   UNL     1      14.801  10.442 -14.813  1.00  0.00     0.135 C 
ATOM     10  C   UNL     1      16.243  12.326 -16.456  1.00  0.00     0.106 C 
ATOM     11  C   UNL     1      14.323  11.878 -15.099  1.00  0.00     0.106 C 
BRANCH   5  12
ATOM     12  C   UNL     1      15.071   7.631 -15.459  1.00  0.00     0.063 C 
ATOM     13  C   UNL     1      14.188   6.976 -16.222  1.00  0.00     0.014 C 
ENDBRANCH   5  12
ENDBRANCH   3   4
ENDBRANCH   2   3
ENDBRANCH   1   2
BRANCH   1  14
ATOM     14  N   UNL     1      15.411  14.619 -11.346  1.00  0.00    -0.292 N 
ATOM     15  C   UNL     1      16.372  15.275 -10.589  1.00  0.00     0.260 A 
ATOM     16  C   UNL     1      14.730  13.467 -10.873  1.00  0.00     0.148 A 
ATOM     17  O   UNL     1      17.020  16.241 -10.994  1.00  0.00    -0.269 OA
ATOM     18  C   UNL     1      16.597  14.785  -9.186  1.00  0.00     0.051 A 
ATOM     19  N   UNL     1      13.823  12.866 -11.673  1.00  0.00    -0.195 NA
ATOM     20  C   UNL     1      15.026  13.000  -9.605  1.00  0.00     0.037 A 
ATOM     21  C   UNL     1      15.961  13.692  -8.736  1.00  0.00     0.028 A 
ATOM     22  C   UNL     1      13.212  11.772 -11.210  1.00  0.00     0.224 A 
ATOM     23  C   UNL     1      14.350  11.864  -9.228  1.00  0.00     0.127 A 
ATOM     24  N   UNL     1      13.454  11.232 -10.009  1.00  0.00    -0.221 NA
BRANCH  18  25
ATOM     25  C   UNL     1      17.484  15.549  -8.281  1.00  0.00     0.032 A 
ATOM     26  C   UNL     1      16.934  16.425  -7.324  1.00  0.00     0.092 A 
ATOM     27  C   UNL     1      18.887  15.438  -8.364  1.00  0.00     0.092 A 
ATOM     28  C   UNL     1      17.764  17.188  -6.484  1.00  0.00     0.141 A 
ATOM     29  C   UNL     1      19.725  16.194  -7.517  1.00  0.00     0.141 A 
ATOM     30  C   UNL     1      19.154  17.061  -6.580  1.00  0.00     0.096 A 
ATOM     31  Cl  UNL     1      15.205  16.570  -7.156  1.00  0.00    -0.080 Cl
ATOM     32  Cl  UNL     1      19.615  14.346  -9.505  1.00  0.00    -0.080 Cl
BRANCH  28  33
ATOM     33  O   UNL     1      17.148  17.998  -5.562  1.00  0.00    -0.495 OA
ATOM     34  C   UNL     1      17.385  19.397  -5.674  1.00  0.00     0.278 C 
ENDBRANCH  28  33
BRANCH  29  35
ATOM     35  O   UNL     1      21.078  16.008  -7.665  1.00  0.00    -0.495 OA
ATOM     36  C   UNL     1      21.837  17.044  -8.273  1.00  0.00     0.278 C 
ENDBRANCH  29  35
ENDBRANCH  18  25
BRANCH  22  37
ATOM     37  N   UNL     1      12.282  11.198 -12.065  1.00  0.00    -0.357 N 
ATOM     38  C   UNL     1      11.069  10.746 -11.422  1.00  0.00     0.143 C 
ATOM     39  H   UNL     1      12.782  10.498 -12.600  1.00  0.00     0.163 HD
ENDBRANCH  22  37
ENDBRANCH   1  14
TORSDOF 9
ENDMDL
MODEL 8
REMARK minimizedAffinity -5.93319464
REMARK CNNscore 0.0794587135
REMARK CNNaffinity 5.57936859
REMARK SMILES C=CC(=O)N1CCN(CCCn2c(=O)c(-c3c(Cl)c(OC)cc(OC)c3Cl)cc3cnc(NC)nc32)CC1
REMARK SMILES IDX 11 1 10 2 9 3 8 4 3 5 4 6 5 7 6 8 38 9 7 10 37 11 2 12 1 13
REMARK SMILES IDX 12 14 13 15 36 16 14 17 15 18 35 19 29 20 28 21 32 22 30 23
REMARK SMILES IDX 31 24 16 25 17 26 26 27 19 28 23 29 22 30 18 31 27 32 20 33
REMARK SMILES IDX 21 34 24 35 25 36 33 37 34 38
REMARK H PARENT 33 39
ROOT
ATOM      1  C   UNL     1      40.912   9.636   0.679  1.00  0.00     0.129 C 
ENDROOT
BRANCH   1   2
ATOM      2  C   UNL     1      42.059   9.842  -0.321  1.00  0.00     0.038 C 
BRANCH   2   3
ATOM      3  C   UNL     1      41.739  10.771  -1.500  1.00  0.00     0.086 C 
BRANCH   3   4
ATOM      4  N   UNL     1      41.708  10.102  -2.811  1.00  0.00    -0.300 NA
ATOM      5  C   UNL     1      39.616  12.820  -5.478  1.00  0.00     0.246 C 
ATOM      6  O   UNL     1      38.403  12.748  -5.654  1.00  0.00    -0.270 OA
ATOM      7  N   UNL     1      40.334  11.978  -4.645  1.00  0.00    -0.337 N 
ATOM      8  C   UNL     1      39.565  11.107  -3.754  1.00  0.00     0.135 C 
ATOM      9  C   UNL     1      41.742  12.181  -4.282  1.00  0.00     0.135 C 
ATOM     10  C   UNL     1      40.341   9.850  -3.317  1.00  0.00     0.106 C 
ATOM     11  C   UNL     1      42.437  10.882  -3.833  1.00  0.00     0.106 C 
BRANCH   5  12
ATOM     12  C   UNL     1      40.380  13.846  -6.223  1.00  0.00     0.063 C 
ATOM     13  C   UNL     1      41.695  13.994  -6.018  1.00  0.00     0.014 C 
ENDBRANCH   5  12
ENDBRANCH   3   4
ENDBRANCH   2   3
ENDBRANCH   1   2
BRANCH   1  14
ATOM     14  N   UNL     1      39.784   8.853   0.193  1.00  0.00    -0.292 N 
ATOM     15  C   UNL     1      39.914   7.474   0.084  1.00  0.00     0.260 A 
ATOM     16  C   UNL     1      38.611   9.537  -0.219  1.00  0.00     0.148 A 
ATOM     17  O   UNL     1      40.940   6.858   0.379  1.00  0.00    -0.269 OA
ATOM     18  C   UNL     1      38.716   6.704  -0.393  1.00  0.00     0.051 A 
ATOM     19  N   UNL     1      38.562  10.881  -0.105  1.00  0.00    -0.195 NA
ATOM     20  C   UNL     1      37.560   8.797  -0.729  1.00  0.00     0.037 A 
ATOM     21  C   UNL     1      37.607   7.346  -0.792  1.00  0.00     0.028 A 
ATOM     22  C   UNL     1      37.454  11.502  -0.520  1.00  0.00     0.224 A 
ATOM     23  C   UNL     1      36.471   9.531  -1.137  1.00  0.00     0.127 A 
ATOM     24  N   UNL     1      36.399  10.872  -1.052  1.00  0.00    -0.221 NA
BRANCH  18  25
ATOM     25  C   UNL     1      38.744   5.224  -0.369  1.00  0.00     0.032 A 
ATOM     26  C   UNL     1      38.455   4.531   0.824  1.00  0.00     0.092 A 
ATOM     27  C   UNL     1      39.077   4.478  -1.517  1.00  0.00     0.092 A 
ATOM     28  C   UNL     1      38.516   3.126   0.874  1.00  0.00     0.141 A 
ATOM     29  C   UNL     1      39.131   3.069  -1.476  1.00  0.00     0.141 A 
ATOM     30  C   UNL     1      38.845   2.405  -0.278  1.00  0.00     0.096 A 
ATOM     31  Cl  UNL     1      38.002   5.406   2.262  1.00  0.00    -0.080 Cl
ATOM     32  Cl  UNL     1      39.409   5.285  -3.022  1.00  0.00    -0.080 Cl
BRANCH  28  33
ATOM     33  O   UNL     1      38.195   2.528   2.067  1.00  0.00    -0.495 OA
ATOM     34  C   UNL     1      37.640   1.219   2.002  1.00  0.00     0.278 C 
ENDBRANCH  28  33
BRANCH  29  35
ATOM     35  O   UNL     1      39.451   2.430  -2.649  1.00  0.00    -0.495 OA
ATOM     36  C   UNL     1      40.674   1.710  -2.710  1.00  0.00     0.278 C 
ENDBRANCH  29  35
ENDBRANCH  18  25
BRANCH  22  37
ATOM     37  N   UNL     1      37.449  12.881  -0.371  1.00  0.00    -0.357 N 
ATOM     38  C   UNL     1      38.321  13.590  -1.281  1.00  0.00     0.143 C 
ATOM     39  H   UNL     1      37.603  13.062   0.613  1.00  0.00     0.163 HD
ENDBRANCH  22  37
ENDBRANCH   1  14
TORSDOF 9
ENDMDL
MODEL 9
REMARK minimizedAffinity -6.8506341
REMARK CNNscore 0.0610409752
REMARK CNNaffinity 5.06703138
REMARK SMILES C=CC(=O)N1CCN(CCCn2c(=O)c(-c3c(Cl)c(OC)cc(OC)c3Cl)cc3cnc(NC)nc32)CC1
REMARK SMILES IDX 11 1 10 2 9 3 8 4 3 5 4 6 5 7 6 8 38 9 7 10 37 11 2 12 1 13
REMARK SMILES IDX 12 14 13 15 36 16 14 17 15 18 35 19 29 20 28 21 32 22 30 23
REMARK SMILES IDX 31 24 16 25 17 26 26 27 19 28 23 29 22 30 18 31 27 32 20 33
REMARK SMILES IDX 21 34 24 35 25 36 33 37 34 38
REMARK H PARENT 33 39
ROOT
ATOM      1  C   UNL     1      13.241  -7.775   2.544  1.00  0.00     0.129 C 
ENDROOT
BRANCH   1   2
ATOM      2  C   UNL     1      14.385  -7.139   3.346  1.00  0.00     0.038 C 
BRANCH   2   3
ATOM      3  C   UNL     1      15.221  -8.120   4.181  1.00  0.00     0.086 C 
BRANCH   3   4
ATOM      4  N   UNL     1      16.446  -7.540   4.755  1.00  0.00    -0.300 NA
ATOM      5  C   UNL     1      18.546 -10.844   6.641  1.00  0.00     0.246 C 
ATOM      6  O   UNL     1      18.382 -11.123   7.825  1.00  0.00    -0.270 OA
ATOM      7  N   UNL     1      17.908  -9.800   5.991  1.00  0.00    -0.337 N 
ATOM      8  C   UNL     1      16.807  -9.145   6.700  1.00  0.00     0.135 C 
ATOM      9  C   UNL     1      17.952  -9.583   4.539  1.00  0.00     0.135 C 
ATOM     10  C   UNL     1      16.549  -7.705   6.222  1.00  0.00     0.106 C 
ATOM     11  C   UNL     1      17.658  -8.124   4.143  1.00  0.00     0.106 C 
BRANCH   5  12
ATOM     12  C   UNL     1      19.511 -11.641   5.852  1.00  0.00     0.063 C 
ATOM     13  C   UNL     1      20.828 -11.507   6.055  1.00  0.00     0.014 C 
ENDBRANCH   5  12
ENDBRANCH   3   4
ENDBRANCH   2   3
ENDBRANCH   1   2
BRANCH   1  14
ATOM     14  N   UNL     1      13.335  -7.642   1.096  1.00  0.00    -0.292 N 
ATOM     15  C   UNL     1      14.383  -8.262   0.427  1.00  0.00     0.260 A 
ATOM     16  C   UNL     1      12.389  -6.823   0.427  1.00  0.00     0.148 A 
ATOM     17  O   UNL     1      15.253  -8.930   0.987  1.00  0.00    -0.269 OA
ATOM     18  C   UNL     1      14.424  -8.122  -1.069  1.00  0.00     0.051 A 
ATOM     19  N   UNL     1      11.409  -6.234   1.145  1.00  0.00    -0.195 NA
ATOM     20  C   UNL     1      12.510  -6.655  -0.940  1.00  0.00     0.037 A 
ATOM     21  C   UNL     1      13.536  -7.343  -1.706  1.00  0.00     0.028 A 
ATOM     22  C   UNL     1      10.543  -5.451   0.494  1.00  0.00     0.224 A 
ATOM     23  C   UNL     1      11.576  -5.824  -1.513  1.00  0.00     0.127 A 
ATOM     24  N   UNL     1      10.599  -5.209  -0.822  1.00  0.00    -0.221 NA
BRANCH  18  25
ATOM     25  C   UNL     1      15.417  -8.896  -1.846  1.00  0.00     0.032 A 
ATOM     26  C   UNL     1      15.191 -10.260  -2.125  1.00  0.00     0.092 A 
ATOM     27  C   UNL     1      16.612  -8.305  -2.305  1.00  0.00     0.092 A 
ATOM     28  C   UNL     1      16.143 -11.020  -2.827  1.00  0.00     0.141 A 
ATOM     29  C   UNL     1      17.567  -9.060  -3.018  1.00  0.00     0.141 A 
ATOM     30  C   UNL     1      17.321 -10.412  -3.277  1.00  0.00     0.096 A 
ATOM     31  Cl  UNL     1      13.713 -11.028  -1.611  1.00  0.00    -0.080 Cl
ATOM     32  Cl  UNL     1      16.923  -6.618  -2.016  1.00  0.00    -0.080 Cl
BRANCH  28  33
ATOM     33  O   UNL     1      15.834 -12.333  -3.079  1.00  0.00    -0.495 OA
ATOM     34  C   UNL     1      15.584 -12.688  -4.435  1.00  0.00     0.278 C 
ENDBRANCH  28  33
BRANCH  29  35
ATOM     35  O   UNL     1      18.692  -8.392  -3.435  1.00  0.00    -0.495 OA
ATOM     36  C   UNL     1      19.864  -8.488  -2.637  1.00  0.00     0.278 C 
ENDBRANCH  29  35
ENDBRANCH  18  25
BRANCH  22  37
ATOM     37  N   UNL     1       9.550  -4.878   1.274  1.00  0.00    -0.357 N 
ATOM     38  C   UNL     1       8.201  -5.166   0.841  1.00  0.00     0.143 C 
ATOM     39  H   UNL     1       9.783  -3.896   1.355  1.00  0.00     0.163 HD
ENDBRANCH  22  37
ENDBRANCH   1  14
TORSDOF 9
ENDMDL
