MODEL 1
REMARK minimizedAffinity -9.08093929
REMARK CNNscore 0.961061716
REMARK CNNaffinity 7.89772081
REMARK SMILES C=CC(=O)N1CC[C@H](Oc2cc(-c3ccc(O)cc3)cn3cncc23)C(F)(F)C1
REMARK SMILES IDX 10 1 11 2 12 3 20 4 21 5 22 6 23 7 24 8 25 9 9 10 8 11 5 12
REMARK SMILES IDX 6 13 29 14 7 15 26 16 27 17 28 18 3 19 4 20 2 21 1 22 13 23
REMARK SMILES IDX 14 24 19 25 15 26 18 27 16 28 17 29
REMARK H PARENT 17 30
ROOT
ATOM      1  C   UNL     1      14.001  12.369   2.898  1.00  0.00     0.146 A 
ATOM      2  C   UNL     1      13.332  13.485   2.549  1.00  0.00     0.059 A 
ATOM      3  C   UNL     1      12.074  13.432   1.797  1.00  0.00     0.002 A 
ATOM      4  C   UNL     1      11.576  12.215   1.488  1.00  0.00     0.101 A 
ATOM      5  N   UNL     1      12.261  11.071   1.889  1.00  0.00    -0.302 N 
ATOM      6  C   UNL     1      11.948   9.748   1.700  1.00  0.00     0.204 A 
ATOM      7  N   UNL     1      12.839   8.944   2.242  1.00  0.00    -0.244 NA
ATOM      8  C   UNL     1      13.769   9.775   2.817  1.00  0.00     0.143 A 
ATOM      9  C   UNL     1      13.454  11.096   2.593  1.00  0.00     0.107 A 
ENDROOT
BRANCH   1  10
ATOM     10  O   UNL     1      15.164  12.400   3.629  1.00  0.00    -0.482 OA
BRANCH  10  11
ATOM     11  C   UNL     1      15.242  13.553   4.494  1.00  0.00     0.246 C 
ATOM     12  N   UNL     1      16.132  15.344   6.463  1.00  0.00    -0.333 N 
ATOM     13  C   UNL     1      16.101  13.947   6.882  1.00  0.00     0.124 C 
ATOM     14  C   UNL     1      16.587  15.588   5.081  1.00  0.00     0.200 C 
ATOM     15  C   UNL     1      15.242  13.087   5.958  1.00  0.00     0.073 C 
ATOM     16  C   UNL     1      16.500  14.361   4.170  1.00  0.00     0.301 C 
ATOM     17  F   UNL     1      16.489  14.768   2.875  1.00  0.00    -0.201 F 
ATOM     18  F   UNL     1      17.611  13.597   4.331  1.00  0.00    -0.201 F 
BRANCH  12  19
ATOM     19  C   UNL     1      16.186  16.313   7.456  1.00  0.00     0.246 C 
ATOM     20  O   UNL     1      17.030  16.335   8.348  1.00  0.00    -0.270 OA
BRANCH  19  21
ATOM     21  C   UNL     1      15.181  17.401   7.408  1.00  0.00     0.063 C 
ATOM     22  C   UNL     1      13.902  17.188   7.742  1.00  0.00     0.014 C 
ENDBRANCH  19  21
ENDBRANCH  12  19
ENDBRANCH  10  11
ENDBRANCH   1  10
BRANCH   3  23
ATOM     23  C   UNL     1      11.346  14.635   1.363  1.00  0.00    -0.017 A 
ATOM     24  C   UNL     1      10.989  15.616   2.300  1.00  0.00     0.012 A 
ATOM     25  C   UNL     1      10.993  14.811   0.018  1.00  0.00     0.012 A 
ATOM     26  C   UNL     1      10.294  16.759   1.898  1.00  0.00     0.047 A 
ATOM     27  C   UNL     1      10.300  15.955  -0.383  1.00  0.00     0.047 A 
ATOM     28  C   UNL     1       9.957  16.919   0.558  1.00  0.00     0.115 A 
BRANCH  28  29
ATOM     29  O   UNL     1       9.281  18.019   0.121  1.00  0.00    -0.508 OA
ATOM     30  H   UNL     1       9.094  18.593   0.882  1.00  0.00     0.293 HD
ENDBRANCH  28  29
ENDBRANCH   3  23
TORSDOF 6
ENDMDL
MODEL 2
REMARK minimizedAffinity -8.89448357
REMARK CNNscore 0.955102384
REMARK CNNaffinity 7.8179245
REMARK SMILES C=CC(=O)N1CC[C@H](Oc2cc(-c3ccc(O)cc3)cn3cncc23)C(F)(F)C1
REMARK SMILES IDX 10 1 11 2 12 3 20 4 21 5 22 6 23 7 24 8 25 9 9 10 8 11 5 12
REMARK SMILES IDX 6 13 29 14 7 15 26 16 27 17 28 18 3 19 4 20 2 21 1 22 13 23
REMARK SMILES IDX 14 24 19 25 15 26 18 27 16 28 17 29
REMARK H PARENT 17 30
ROOT
ATOM      1  C   UNL     1      14.481  12.157   2.875  1.00  0.00     0.146 A 
ATOM      2  C   UNL     1      13.784  13.264   2.551  1.00  0.00     0.059 A 
ATOM      3  C   UNL     1      12.426  13.192   2.000  1.00  0.00     0.002 A 
ATOM      4  C   UNL     1      11.871  11.970   1.855  1.00  0.00     0.101 A 
ATOM      5  N   UNL     1      12.590  10.839   2.229  1.00  0.00    -0.302 N 
ATOM      6  C   UNL     1      12.233   9.514   2.182  1.00  0.00     0.204 A 
ATOM      7  N   UNL     1      13.183   8.727   2.642  1.00  0.00    -0.244 NA
ATOM      8  C   UNL     1      14.201   9.571   3.013  1.00  0.00     0.143 A 
ATOM      9  C   UNL     1      13.875  10.881   2.745  1.00  0.00     0.107 A 
ENDROOT
BRANCH   1  10
ATOM     10  O   UNL     1      15.740  12.208   3.422  1.00  0.00    -0.482 OA
BRANCH  10  11
ATOM     11  C   UNL     1      15.855  13.215   4.450  1.00  0.00     0.246 C 
ATOM     12  N   UNL     1      15.171  15.158   6.356  1.00  0.00    -0.333 N 
ATOM     13  C   UNL     1      14.498  15.306   5.071  1.00  0.00     0.124 C 
ATOM     14  C   UNL     1      15.332  13.774   6.840  1.00  0.00     0.200 C 
ATOM     15  C   UNL     1      15.188  14.511   3.964  1.00  0.00     0.073 C 
ATOM     16  C   UNL     1      15.212  12.712   5.743  1.00  0.00     0.301 C 
ATOM     17  F   UNL     1      15.808  11.568   6.164  1.00  0.00    -0.201 F 
ATOM     18  F   UNL     1      13.901  12.419   5.539  1.00  0.00    -0.201 F 
BRANCH  12  19
ATOM     19  C   UNL     1      15.190  16.258   7.203  1.00  0.00     0.246 C 
ATOM     20  O   UNL     1      16.094  16.496   7.999  1.00  0.00    -0.270 OA
BRANCH  19  21
ATOM     21  C   UNL     1      14.063  17.216   7.109  1.00  0.00     0.063 C 
ATOM     22  C   UNL     1      13.187  17.368   8.111  1.00  0.00     0.014 C 
ENDBRANCH  19  21
ENDBRANCH  12  19
ENDBRANCH  10  11
ENDBRANCH   1  10
BRANCH   3  23
ATOM     23  C   UNL     1      11.660  14.381   1.594  1.00  0.00    -0.017 A 
ATOM     24  C   UNL     1      11.302  15.344   2.548  1.00  0.00     0.012 A 
ATOM     25  C   UNL     1      11.270  14.560   0.260  1.00  0.00     0.012 A 
ATOM     26  C   UNL     1      10.571  16.474   2.174  1.00  0.00     0.047 A 
ATOM     27  C   UNL     1      10.540  15.690  -0.114  1.00  0.00     0.047 A 
ATOM     28  C   UNL     1      10.197  16.638   0.844  1.00  0.00     0.115 A 
BRANCH  28  29
ATOM     29  O   UNL     1       9.485  17.724   0.433  1.00  0.00    -0.508 OA
ATOM     30  H   UNL     1       9.303  18.288   1.203  1.00  0.00     0.293 HD
ENDBRANCH  28  29
ENDBRANCH   3  23
TORSDOF 6
ENDMDL
MODEL 3
REMARK minimizedAffinity -8.81624603
REMARK CNNscore 0.922780633
REMARK CNNaffinity 7.70648336
REMARK SMILES C=CC(=O)N1CC[C@H](Oc2cc(-c3ccc(O)cc3)cn3cncc23)C(F)(F)C1
REMARK SMILES IDX 10 1 11 2 12 3 20 4 21 5 22 6 23 7 24 8 25 9 9 10 8 11 5 12
REMARK SMILES IDX 6 13 29 14 7 15 26 16 27 17 28 18 3 19 4 20 2 21 1 22 13 23
REMARK SMILES IDX 14 24 19 25 15 26 18 27 16 28 17 29
REMARK H PARENT 17 30
ROOT
ATOM      1  C   UNL     1      14.148  12.600   2.948  1.00  0.00     0.146 A 
ATOM      2  C   UNL     1      13.430  13.682   2.585  1.00  0.00     0.059 A 
ATOM      3  C   UNL     1      12.165  13.564   1.853  1.00  0.00     0.002 A 
ATOM      4  C   UNL     1      11.711  12.322   1.578  1.00  0.00     0.101 A 
ATOM      5  N   UNL     1      12.445  11.214   1.993  1.00  0.00    -0.302 N 
ATOM      6  C   UNL     1      12.182   9.876   1.836  1.00  0.00     0.204 A 
ATOM      7  N   UNL     1      13.111   9.120   2.382  1.00  0.00    -0.244 NA
ATOM      8  C   UNL     1      14.016   9.998   2.926  1.00  0.00     0.143 A 
ATOM      9  C   UNL     1      13.646  11.301   2.678  1.00  0.00     0.107 A 
ENDROOT
BRANCH   1  10
ATOM     10  O   UNL     1      15.318  12.692   3.662  1.00  0.00    -0.482 OA
BRANCH  10  11
ATOM     11  C   UNL     1      15.814  11.401   4.076  1.00  0.00     0.246 C 
ATOM     12  N   UNL     1      17.402   9.426   5.281  1.00  0.00    -0.333 N 
ATOM     13  C   UNL     1      18.151  10.451   4.564  1.00  0.00     0.124 C 
ATOM     14  C   UNL     1      16.232   9.901   6.044  1.00  0.00     0.200 C 
ATOM     15  C   UNL     1      17.267  11.243   3.602  1.00  0.00     0.073 C 
ATOM     16  C   UNL     1      15.711  11.269   5.597  1.00  0.00     0.301 C 
ATOM     17  F   UNL     1      14.424  11.410   6.005  1.00  0.00    -0.201 F 
ATOM     18  F   UNL     1      16.426  12.249   6.208  1.00  0.00    -0.201 F 
BRANCH  12  19
ATOM     19  C   UNL     1      18.057   8.236   5.571  1.00  0.00     0.246 C 
ATOM     20  O   UNL     1      19.203   8.171   6.007  1.00  0.00    -0.270 OA
BRANCH  19  21
ATOM     21  C   UNL     1      17.306   6.974   5.370  1.00  0.00     0.063 C 
ATOM     22  C   UNL     1      17.928   5.788   5.333  1.00  0.00     0.014 C 
ENDBRANCH  19  21
ENDBRANCH  12  19
ENDBRANCH  10  11
ENDBRANCH   1  10
BRANCH   3  23
ATOM     23  C   UNL     1      11.385  14.728   1.404  1.00  0.00    -0.017 A 
ATOM     24  C   UNL     1      10.982  15.702   2.329  1.00  0.00     0.012 A 
ATOM     25  C   UNL     1      11.027  14.872   0.057  1.00  0.00     0.012 A 
ATOM     26  C   UNL     1      10.238  16.809   1.913  1.00  0.00     0.047 A 
ATOM     27  C   UNL     1      10.284  15.979  -0.358  1.00  0.00     0.047 A 
ATOM     28  C   UNL     1       9.896  16.938   0.571  1.00  0.00     0.115 A 
BRANCH  28  29
ATOM     29  O   UNL     1       9.173  18.001   0.120  1.00  0.00    -0.508 OA
ATOM     30  H   UNL     1       8.959  18.575   0.874  1.00  0.00     0.293 HD
ENDBRANCH  28  29
ENDBRANCH   3  23
TORSDOF 6
ENDMDL
MODEL 4
REMARK minimizedAffinity -8.76692295
REMARK CNNscore 0.88491255
REMARK CNNaffinity 7.58169603
REMARK SMILES C=CC(=O)N1CC[C@H](Oc2cc(-c3ccc(O)cc3)cn3cncc23)C(F)(F)C1
REMARK SMILES IDX 10 1 11 2 12 3 20 4 21 5 22 6 23 7 24 8 25 9 9 10 8 11 5 12
REMARK SMILES IDX 6 13 29 14 7 15 26 16 27 17 28 18 3 19 4 20 2 21 1 22 13 23
REMARK SMILES IDX 14 24 19 25 15 26 18 27 16 28 17 29
REMARK H PARENT 17 30
ROOT
ATOM      1  C   UNL     1      13.747  12.022   3.904  1.00  0.00     0.146 A 
ATOM      2  C   UNL     1      13.123  13.149   3.507  1.00  0.00     0.059 A 
ATOM      3  C   UNL     1      12.180  13.158   2.384  1.00  0.00     0.002 A 
ATOM      4  C   UNL     1      11.922  11.984   1.769  1.00  0.00     0.101 A 
ATOM      5  N   UNL     1      12.547  10.822   2.216  1.00  0.00    -0.302 N 
ATOM      6  C   UNL     1      12.435   9.533   1.760  1.00  0.00     0.204 A 
ATOM      7  N   UNL     1      13.177   8.694   2.452  1.00  0.00    -0.244 NA
ATOM      8  C   UNL     1      13.795   9.465   3.406  1.00  0.00     0.143 A 
ATOM      9  C   UNL     1      13.446  10.790   3.269  1.00  0.00     0.107 A 
ENDROOT
BRANCH   1  10
ATOM     10  O   UNL     1      14.609  11.990   4.974  1.00  0.00    -0.482 OA
BRANCH  10  11
ATOM     11  C   UNL     1      15.836  12.705   4.716  1.00  0.00     0.246 C 
ATOM     12  N   UNL     1      18.419  13.754   5.038  1.00  0.00    -0.333 N 
ATOM     13  C   UNL     1      17.550  13.917   6.198  1.00  0.00     0.124 C 
ATOM     14  C   UNL     1      18.304  12.468   4.325  1.00  0.00     0.200 C 
ATOM     15  C   UNL     1      16.077  13.718   5.846  1.00  0.00     0.073 C 
ATOM     16  C   UNL     1      16.998  11.717   4.602  1.00  0.00     0.301 C 
ATOM     17  F   UNL     1      16.776  10.827   3.602  1.00  0.00    -0.201 F 
ATOM     18  F   UNL     1      17.124  10.996   5.747  1.00  0.00    -0.201 F 
BRANCH  12  19
ATOM     19  C   UNL     1      19.550  14.557   4.964  1.00  0.00     0.246 C 
ATOM     20  O   UNL     1      20.609  14.204   4.453  1.00  0.00    -0.270 OA
BRANCH  19  21
ATOM     21  C   UNL     1      19.452  15.932   5.508  1.00  0.00     0.063 C 
ATOM     22  C   UNL     1      19.236  16.987   4.711  1.00  0.00     0.014 C 
ENDBRANCH  19  21
ENDBRANCH  12  19
ENDBRANCH  10  11
ENDBRANCH   1  10
BRANCH   3  23
ATOM     23  C   UNL     1      11.520  14.381   1.900  1.00  0.00    -0.017 A 
ATOM     24  C   UNL     1      11.167  15.393   2.804  1.00  0.00     0.012 A 
ATOM     25  C   UNL     1      11.226  14.544   0.539  1.00  0.00     0.012 A 
ATOM     26  C   UNL     1      10.537  16.556   2.355  1.00  0.00     0.047 A 
ATOM     27  C   UNL     1      10.597  15.707   0.090  1.00  0.00     0.047 A 
ATOM     28  C   UNL     1      10.258  16.703   0.999  1.00  0.00     0.115 A 
BRANCH  28  29
ATOM     29  O   UNL     1       9.646  17.820   0.516  1.00  0.00    -0.508 OA
ATOM     30  H   UNL     1       9.453  18.417   1.259  1.00  0.00     0.293 HD
ENDBRANCH  28  29
ENDBRANCH   3  23
TORSDOF 6
ENDMDL
MODEL 5
REMARK minimizedAffinity -7.4074688
REMARK CNNscore 0.763488531
REMARK CNNaffinity 6.87998724
REMARK SMILES C=CC(=O)N1CC[C@H](Oc2cc(-c3ccc(O)cc3)cn3cncc23)C(F)(F)C1
REMARK SMILES IDX 10 1 11 2 12 3 20 4 21 5 22 6 23 7 24 8 25 9 9 10 8 11 5 12
REMARK SMILES IDX 6 13 29 14 7 15 26 16 27 17 28 18 3 19 4 20 2 21 1 22 13 23
REMARK SMILES IDX 14 24 19 25 15 26 18 27 16 28 17 29
REMARK H PARENT 17 30
ROOT
ATOM      1  C   UNL     1      15.662  10.319   3.895  1.00  0.00     0.146 A 
ATOM      2  C   UNL     1      15.686  11.549   4.445  1.00  0.00     0.059 A 
ATOM      3  C   UNL     1      14.557  12.477   4.319  1.00  0.00     0.002 A 
ATOM      4  C   UNL     1      13.461  12.048   3.657  1.00  0.00     0.101 A 
ATOM      5  N   UNL     1      13.438  10.761   3.127  1.00  0.00    -0.302 N 
ATOM      6  C   UNL     1      12.447  10.113   2.432  1.00  0.00     0.204 A 
ATOM      7  N   UNL     1      12.791   8.885   2.104  1.00  0.00    -0.244 NA
ATOM      8  C   UNL     1      14.056   8.719   2.612  1.00  0.00     0.143 A 
ATOM      9  C   UNL     1      14.495   9.870   3.226  1.00  0.00     0.107 A 
ENDROOT
BRANCH   1  10
ATOM     10  O   UNL     1      16.698   9.427   4.030  1.00  0.00    -0.482 OA
BRANCH  10  11
ATOM     11  C   UNL     1      16.931   9.056   5.406  1.00  0.00     0.246 C 
ATOM     12  N   UNL     1      17.979   7.776   7.673  1.00  0.00    -0.333 N 
ATOM     13  C   UNL     1      17.615   6.877   6.583  1.00  0.00     0.124 C 
ATOM     14  C   UNL     1      18.608   9.048   7.272  1.00  0.00     0.200 C 
ATOM     15  C   UNL     1      16.690   7.547   5.569  1.00  0.00     0.073 C 
ATOM     16  C   UNL     1      18.355   9.436   5.812  1.00  0.00     0.301 C 
ATOM     17  F   UNL     1      18.558  10.770   5.665  1.00  0.00    -0.201 F 
ATOM     18  F   UNL     1      19.260   8.812   5.014  1.00  0.00    -0.201 F 
BRANCH  12  19
ATOM     19  C   UNL     1      18.137   7.223   8.937  1.00  0.00     0.246 C 
ATOM     20  O   UNL     1      17.976   6.032   9.190  1.00  0.00    -0.270 OA
BRANCH  19  21
ATOM     21  C   UNL     1      18.559   8.127  10.033  1.00  0.00     0.063 C 
ATOM     22  C   UNL     1      18.063   8.006  11.271  1.00  0.00     0.014 C 
ENDBRANCH  19  21
ENDBRANCH  12  19
ENDBRANCH  10  11
ENDBRANCH   1  10
BRANCH   3  23
ATOM     23  C   UNL     1      14.573  13.841   4.870  1.00  0.00    -0.017 A 
ATOM     24  C   UNL     1      15.026  14.065   6.178  1.00  0.00     0.012 A 
ATOM     25  C   UNL     1      14.128  14.927   4.103  1.00  0.00     0.012 A 
ATOM     26  C   UNL     1      15.041  15.356   6.711  1.00  0.00     0.047 A 
ATOM     27  C   UNL     1      14.145  16.218   4.636  1.00  0.00     0.047 A 
ATOM     28  C   UNL     1      14.601  16.423   5.933  1.00  0.00     0.115 A 
BRANCH  28  29
ATOM     29  O   UNL     1      14.600  17.699   6.411  1.00  0.00    -0.508 OA
ATOM     30  H   UNL     1      14.924  17.690   7.326  1.00  0.00     0.293 HD
ENDBRANCH  28  29
ENDBRANCH   3  23
TORSDOF 6
ENDMDL
MODEL 6
REMARK minimizedAffinity -7.69254398
REMARK CNNscore 0.54947871
REMARK CNNaffinity 6.90314484
REMARK SMILES C=CC(=O)N1CC[C@H](Oc2cc(-c3ccc(O)cc3)cn3cncc23)C(F)(F)C1
REMARK SMILES IDX 10 1 11 2 12 3 20 4 21 5 22 6 23 7 24 8 25 9 9 10 8 11 5 12
REMARK SMILES IDX 6 13 29 14 7 15 26 16 27 17 28 18 3 19 4 20 2 21 1 22 13 23
REMARK SMILES IDX 14 24 19 25 15 26 18 27 16 28 17 29
REMARK H PARENT 17 30
ROOT
ATOM      1  C   UNL     1      12.842  15.304   2.297  1.00  0.00     0.146 A 
ATOM      2  C   UNL     1      13.757  15.322   3.286  1.00  0.00     0.059 A 
ATOM      3  C   UNL     1      13.560  16.104   4.511  1.00  0.00     0.002 A 
ATOM      4  C   UNL     1      12.404  16.790   4.640  1.00  0.00     0.101 A 
ATOM      5  N   UNL     1      11.453  16.731   3.625  1.00  0.00    -0.302 N 
ATOM      6  C   UNL     1      10.220  17.328   3.540  1.00  0.00     0.204 A 
ATOM      7  N   UNL     1       9.595  17.022   2.422  1.00  0.00    -0.244 NA
ATOM      8  C   UNL     1      10.451  16.183   1.751  1.00  0.00     0.143 A 
ATOM      9  C   UNL     1      11.619  16.006   2.457  1.00  0.00     0.107 A 
ENDROOT
BRANCH   1  10
ATOM     10  O   UNL     1      12.996  14.551   1.158  1.00  0.00    -0.482 OA
BRANCH  10  11
ATOM     11  C   UNL     1      13.297  13.169   1.446  1.00  0.00     0.246 C 
ATOM     12  N   UNL     1      13.593  10.745   2.829  1.00  0.00    -0.333 N 
ATOM     13  C   UNL     1      14.122  11.911   3.528  1.00  0.00     0.124 C 
ATOM     14  C   UNL     1      12.324  10.953   2.106  1.00  0.00     0.200 C 
ATOM     15  C   UNL     1      14.316  13.104   2.594  1.00  0.00     0.073 C 
ATOM     16  C   UNL     1      12.012  12.421   1.802  1.00  0.00     0.301 C 
ATOM     17  F   UNL     1      11.120  12.484   0.781  1.00  0.00    -0.201 F 
ATOM     18  F   UNL     1      11.414  12.990   2.881  1.00  0.00    -0.201 F 
BRANCH  12  19
ATOM     19  C   UNL     1      14.025   9.493   3.247  1.00  0.00     0.246 C 
ATOM     20  O   UNL     1      13.610   8.434   2.785  1.00  0.00    -0.270 OA
BRANCH  19  21
ATOM     21  C   UNL     1      15.076   9.444   4.290  1.00  0.00     0.063 C 
ATOM     22  C   UNL     1      15.562   8.280   4.741  1.00  0.00     0.014 C 
ENDBRANCH  19  21
ENDBRANCH  12  19
ENDBRANCH  10  11
ENDBRANCH   1  10
BRANCH   3  23
ATOM     23  C   UNL     1      14.561  16.178   5.586  1.00  0.00    -0.017 A 
ATOM     24  C   UNL     1      15.596  15.234   5.648  1.00  0.00     0.012 A 
ATOM     25  C   UNL     1      14.489  17.180   6.564  1.00  0.00     0.012 A 
ATOM     26  C   UNL     1      16.550  15.294   6.667  1.00  0.00     0.047 A 
ATOM     27  C   UNL     1      15.442  17.240   7.581  1.00  0.00     0.047 A 
ATOM     28  C   UNL     1      16.465  16.299   7.626  1.00  0.00     0.115 A 
BRANCH  28  29
ATOM     29  O   UNL     1      17.373  16.397   8.637  1.00  0.00    -0.508 OA
ATOM     30  H   UNL     1      18.013  15.671   8.553  1.00  0.00     0.293 HD
ENDBRANCH  28  29
ENDBRANCH   3  23
TORSDOF 6
ENDMDL
MODEL 7
REMARK minimizedAffinity -6.68152523
REMARK CNNscore 0.528103828
REMARK CNNaffinity 5.13006926
REMARK SMILES C=CC(=O)N1CC[C@H](Oc2cc(-c3ccc(O)cc3)cn3cncc23)C(F)(F)C1
REMARK SMILES IDX 10 1 11 2 12 3 20 4 21 5 22 6 23 7 24 8 25 9 9 10 8 11 5 12
REMARK SMILES IDX 6 13 29 14 7 15 26 16 27 17 28 18 3 19 4 20 2 21 1 22 13 23
REMARK SMILES IDX 14 24 19 25 15 26 18 27 16 28 17 29
REMARK H PARENT 17 30
ROOT
ATOM      1  C   UNL     1      15.985  37.109 -12.874  1.00  0.00     0.146 A 
ATOM      2  C   UNL     1      14.836  37.544 -12.321  1.00  0.00     0.059 A 
ATOM      3  C   UNL     1      14.648  37.603 -10.867  1.00  0.00     0.002 A 
ATOM      4  C   UNL     1      15.685  37.237 -10.084  1.00  0.00     0.101 A 
ATOM      5  N   UNL     1      16.878  36.826 -10.671  1.00  0.00    -0.302 N 
ATOM      6  C   UNL     1      18.053  36.423 -10.085  1.00  0.00     0.204 A 
ATOM      7  N   UNL     1      18.974  36.121 -10.976  1.00  0.00    -0.244 NA
ATOM      8  C   UNL     1      18.382  36.345 -12.195  1.00  0.00     0.143 A 
ATOM      9  C   UNL     1      17.077  36.755 -12.039  1.00  0.00     0.107 A 
ENDROOT
BRANCH   1  10
ATOM     10  O   UNL     1      16.189  37.077 -14.232  1.00  0.00    -0.482 OA
BRANCH  10  11
ATOM     11  C   UNL     1      16.876  35.881 -14.659  1.00  0.00     0.246 C 
ATOM     12  N   UNL     1      17.486  33.517 -16.042  1.00  0.00    -0.333 N 
ATOM     13  C   UNL     1      16.111  33.601 -15.562  1.00  0.00     0.124 C 
ATOM     14  C   UNL     1      18.058  34.769 -16.572  1.00  0.00     0.200 C 
ATOM     15  C   UNL     1      15.940  34.674 -14.489  1.00  0.00     0.073 C 
ATOM     16  C   UNL     1      17.326  36.032 -16.113  1.00  0.00     0.301 C 
ATOM     17  F   UNL     1      18.152  37.101 -16.252  1.00  0.00    -0.201 F 
ATOM     18  F   UNL     1      16.257  36.256 -16.921  1.00  0.00    -0.201 F 
BRANCH  12  19
ATOM     19  C   UNL     1      17.971  32.262 -16.386  1.00  0.00     0.246 C 
ATOM     20  O   UNL     1      17.572  31.212 -15.891  1.00  0.00    -0.270 OA
BRANCH  19  21
ATOM     21  C   UNL     1      19.010  32.194 -17.441  1.00  0.00     0.063 C 
ATOM     22  C   UNL     1      19.915  31.207 -17.470  1.00  0.00     0.014 C 
ENDBRANCH  19  21
ENDBRANCH  12  19
ENDBRANCH  10  11
ENDBRANCH   1  10
BRANCH   3  23
ATOM     23  C   UNL     1      13.388  38.030 -10.238  1.00  0.00    -0.017 A 
ATOM     24  C   UNL     1      12.936  39.348 -10.395  1.00  0.00     0.012 A 
ATOM     25  C   UNL     1      12.635  37.134  -9.467  1.00  0.00     0.012 A 
ATOM     26  C   UNL     1      11.744  39.763  -9.797  1.00  0.00     0.047 A 
ATOM     27  C   UNL     1      11.443  37.549  -8.871  1.00  0.00     0.047 A 
ATOM     28  C   UNL     1      11.006  38.858  -9.040  1.00  0.00     0.115 A 
BRANCH  28  29
ATOM     29  O   UNL     1       9.837  39.219  -8.440  1.00  0.00    -0.508 OA
ATOM     30  H   UNL     1       9.666  40.157  -8.628  1.00  0.00     0.293 HD
ENDBRANCH  28  29
ENDBRANCH   3  23
TORSDOF 6
ENDMDL
MODEL 8
REMARK minimizedAffinity -8.17911148
REMARK CNNscore 0.514962912
REMARK CNNaffinity 6.9822197
REMARK SMILES C=CC(=O)N1CC[C@H](Oc2cc(-c3ccc(O)cc3)cn3cncc23)C(F)(F)C1
REMARK SMILES IDX 10 1 11 2 12 3 20 4 21 5 22 6 23 7 24 8 25 9 9 10 8 11 5 12
REMARK SMILES IDX 6 13 29 14 7 15 26 16 27 17 28 18 3 19 4 20 2 21 1 22 13 23
REMARK SMILES IDX 14 24 19 25 15 26 18 27 16 28 17 29
REMARK H PARENT 17 30
ROOT
ATOM      1  C   UNL     1      14.112  12.024   4.302  1.00  0.00     0.146 A 
ATOM      2  C   UNL     1      15.022  11.253   4.930  1.00  0.00     0.059 A 
ATOM      3  C   UNL     1      15.131   9.814   4.671  1.00  0.00     0.002 A 
ATOM      4  C   UNL     1      14.307   9.278   3.745  1.00  0.00     0.101 A 
ATOM      5  N   UNL     1      13.399  10.095   3.077  1.00  0.00    -0.302 N 
ATOM      6  C   UNL     1      12.482   9.779   2.105  1.00  0.00     0.204 A 
ATOM      7  N   UNL     1      11.805  10.833   1.701  1.00  0.00    -0.244 NA
ATOM      8  C   UNL     1      12.304  11.884   2.431  1.00  0.00     0.143 A 
ATOM      9  C   UNL     1      13.272  11.454   3.310  1.00  0.00     0.107 A 
ENDROOT
BRANCH   1  10
ATOM     10  O   UNL     1      14.018  13.379   4.510  1.00  0.00    -0.482 OA
BRANCH  10  11
ATOM     11  C   UNL     1      15.302  13.990   4.760  1.00  0.00     0.246 C 
ATOM     12  N   UNL     1      17.348  15.903   4.925  1.00  0.00    -0.333 N 
ATOM     13  C   UNL     1      16.623  15.898   3.659  1.00  0.00     0.124 C 
ATOM     14  C   UNL     1      16.530  15.693   6.134  1.00  0.00     0.200 C 
ATOM     15  C   UNL     1      15.828  14.610   3.456  1.00  0.00     0.073 C 
ATOM     16  C   UNL     1      15.171  15.043   5.861  1.00  0.00     0.301 C 
ATOM     17  F   UNL     1      14.706  14.484   7.007  1.00  0.00    -0.201 F 
ATOM     18  F   UNL     1      14.275  15.999   5.500  1.00  0.00    -0.201 F 
BRANCH  12  19
ATOM     19  C   UNL     1      18.587  16.530   4.954  1.00  0.00     0.246 C 
ATOM     20  O   UNL     1      18.739  17.748   4.975  1.00  0.00    -0.270 OA
BRANCH  19  21
ATOM     21  C   UNL     1      19.792  15.668   4.997  1.00  0.00     0.063 C 
ATOM     22  C   UNL     1      19.707  14.338   4.856  1.00  0.00     0.014 C 
ENDBRANCH  19  21
ENDBRANCH  12  19
ENDBRANCH  10  11
ENDBRANCH   1  10
BRANCH   3  23
ATOM     23  C   UNL     1      16.082   8.941   5.376  1.00  0.00    -0.017 A 
ATOM     24  C   UNL     1      16.839   9.445   6.443  1.00  0.00     0.012 A 
ATOM     25  C   UNL     1      16.253   7.605   4.985  1.00  0.00     0.012 A 
ATOM     26  C   UNL     1      17.748   8.625   7.116  1.00  0.00     0.047 A 
ATOM     27  C   UNL     1      17.161   6.786   5.658  1.00  0.00     0.047 A 
ATOM     28  C   UNL     1      17.900   7.300   6.718  1.00  0.00     0.115 A 
BRANCH  28  29
ATOM     29  O   UNL     1      18.773   6.464   7.346  1.00  0.00    -0.508 OA
ATOM     30  H   UNL     1      19.229   6.958   8.048  1.00  0.00     0.293 HD
ENDBRANCH  28  29
ENDBRANCH   3  23
TORSDOF 6
ENDMDL
MODEL 9
REMARK minimizedAffinity -8.16580582
REMARK CNNscore 0.217229396
REMARK CNNaffinity 5.80068541
REMARK SMILES C=CC(=O)N1CC[C@H](Oc2cc(-c3ccc(O)cc3)cn3cncc23)C(F)(F)C1
REMARK SMILES IDX 10 1 11 2 12 3 20 4 21 5 22 6 23 7 24 8 25 9 9 10 8 11 5 12
REMARK SMILES IDX 6 13 29 14 7 15 26 16 27 17 28 18 3 19 4 20 2 21 1 22 13 23
REMARK SMILES IDX 14 24 19 25 15 26 18 27 16 28 17 29
REMARK H PARENT 17 30
ROOT
ATOM      1  C   UNL     1      17.166  10.547   4.821  1.00  0.00     0.146 A 
ATOM      2  C   UNL     1      16.040  10.901   4.170  1.00  0.00     0.059 A 
ATOM      3  C   UNL     1      15.028   9.915   3.778  1.00  0.00     0.002 A 
ATOM      4  C   UNL     1      15.240   8.626   4.122  1.00  0.00     0.101 A 
ATOM      5  N   UNL     1      16.390   8.283   4.826  1.00  0.00    -0.302 N 
ATOM      6  C   UNL     1      16.808   7.058   5.284  1.00  0.00     0.204 A 
ATOM      7  N   UNL     1      17.954   7.132   5.927  1.00  0.00    -0.244 NA
ATOM      8  C   UNL     1      18.297   8.462   5.898  1.00  0.00     0.143 A 
ATOM      9  C   UNL     1      17.363   9.195   5.201  1.00  0.00     0.107 A 
ENDROOT
BRANCH   1  10
ATOM     10  O   UNL     1      18.109  11.462   5.223  1.00  0.00    -0.482 OA
BRANCH  10  11
ATOM     11  C   UNL     1      17.560  12.789   5.376  1.00  0.00     0.246 C 
ATOM     12  N   UNL     1      17.347  15.527   5.953  1.00  0.00    -0.333 N 
ATOM     13  C   UNL     1      18.009  14.740   6.986  1.00  0.00     0.124 C 
ATOM     14  C   UNL     1      17.670  15.160   4.561  1.00  0.00     0.200 C 
ATOM     15  C   UNL     1      17.739  13.244   6.833  1.00  0.00     0.073 C 
ATOM     16  C   UNL     1      18.249  13.751   4.407  1.00  0.00     0.301 C 
ATOM     17  F   UNL     1      18.085  13.340   3.124  1.00  0.00    -0.201 F 
ATOM     18  F   UNL     1      19.587  13.783   4.640  1.00  0.00    -0.201 F 
BRANCH  12  19
ATOM     19  C   UNL     1      16.867  16.781   6.308  1.00  0.00     0.246 C 
ATOM     20  O   UNL     1      17.109  17.810   5.684  1.00  0.00    -0.270 OA
BRANCH  19  21
ATOM     21  C   UNL     1      15.982  16.865   7.493  1.00  0.00     0.063 C 
ATOM     22  C   UNL     1      14.664  16.646   7.401  1.00  0.00     0.014 C 
ENDBRANCH  19  21
ENDBRANCH  12  19
ENDBRANCH  10  11
ENDBRANCH   1  10
BRANCH   3  23
ATOM     23  C   UNL     1      13.812  10.267   3.028  1.00  0.00    -0.017 A 
ATOM     24  C   UNL     1      13.185  11.502   3.246  1.00  0.00     0.012 A 
ATOM     25  C   UNL     1      13.261   9.372   2.100  1.00  0.00     0.012 A 
ATOM     26  C   UNL     1      12.029  11.843   2.541  1.00  0.00     0.047 A 
ATOM     27  C   UNL     1      12.105   9.714   1.395  1.00  0.00     0.047 A 
ATOM     28  C   UNL     1      11.499  10.945   1.619  1.00  0.00     0.115 A 
BRANCH  28  29
ATOM     29  O   UNL     1      10.373  11.236   0.909  1.00  0.00    -0.508 OA
ATOM     30  H   UNL     1      10.052  12.112   1.178  1.00  0.00     0.293 HD
ENDBRANCH  28  29
ENDBRANCH   3  23
TORSDOF 6
ENDMDL
