MODEL 1
REMARK minimizedAffinity -8.62454605
REMARK CNNscore 0.973983943
REMARK CNNaffinity 8.20464039
REMARK SMILES C=CCOC(=O)N1[C@@H]2CCC[C@H]1C[C@H](Nc1nc(Nc3cc(C)[nH]n3)cc3nc(CN4CCOCC4)ccc13)C2
REMARK SMILES IDX 7 1 8 2 9 3 10 4 11 5 12 6 13 7 14 8 40 9 5 10 6 11 4 12
REMARK SMILES IDX 3 13 2 14 1 15 15 16 16 18 17 19 39 20 18 21 38 22 27 23
REMARK SMILES IDX 26 24 37 25 28 26 29 27 19 28 20 30 21 31 25 32 22 33 24 34
REMARK SMILES IDX 23 35 30 37 31 38 32 39 36 40 33 41 35 42 34 43
REMARK H PARENT 15 17 19 29 24 36
ROOT
ATOM      1  N   UNL     1      14.877  15.074   3.540  1.00  0.00    -0.302 N 
ATOM      2  C   UNL     1      14.835  14.310   4.789  1.00  0.00     0.091 C 
ATOM      3  C   UNL     1      15.490  15.114   5.932  1.00  0.00     0.025 C 
ATOM      4  C   UNL     1      16.108  16.433   5.465  1.00  0.00     0.004 C 
ATOM      5  C   UNL     1      16.933  16.276   4.187  1.00  0.00     0.025 C 
ATOM      6  C   UNL     1      16.230  15.424   3.109  1.00  0.00     0.091 C 
ATOM      7  C   UNL     1      16.995  14.123   2.793  1.00  0.00     0.050 C 
ATOM      8  C   UNL     1      16.943  13.146   3.981  1.00  0.00     0.084 C 
ATOM      9  C   UNL     1      15.526  12.953   4.548  1.00  0.00     0.050 C 
ENDROOT
BRANCH   1  10
ATOM     10  C   UNL     1      13.837  15.090   2.624  1.00  0.00     0.410 C 
ATOM     11  O   UNL     1      13.983  14.925   1.419  1.00  0.00    -0.224 OA
BRANCH  10  12
ATOM     12  O   UNL     1      12.635  15.320   3.215  1.00  0.00    -0.445 OA
BRANCH  12  13
ATOM     13  C   UNL     1      11.606  15.850   2.374  1.00  0.00     0.262 C 
BRANCH  13  14
ATOM     14  C   UNL     1      10.877  16.927   3.117  1.00  0.00     0.006 C 
ATOM     15  C   UNL     1      11.293  17.493   4.256  1.00  0.00     0.007 C 
ENDBRANCH  13  14
ENDBRANCH  12  13
ENDBRANCH  10  12
ENDBRANCH   1  10
BRANCH   8  16
ATOM     16  N   UNL     1      17.654  11.884   3.740  1.00  0.00    -0.367 N 
ATOM     17  H   UNL     1      18.596  11.918   4.124  1.00  0.00     0.162 HD
BRANCH  16  18
ATOM     18  C   UNL     1      17.098  10.635   4.059  1.00  0.00     0.138 A 
ATOM     19  N   UNL     1      16.017  10.198   3.388  1.00  0.00    -0.213 NA
ATOM     20  C   UNL     1      17.712   9.850   5.064  1.00  0.00     0.043 A 
ATOM     21  C   UNL     1      15.478   8.998   3.697  1.00  0.00     0.136 A 
ATOM     22  C   UNL     1      18.881  10.210   5.772  1.00  0.00     0.016 A 
ATOM     23  C   UNL     1      17.135   8.615   5.385  1.00  0.00     0.078 A 
ATOM     24  C   UNL     1      16.011   8.208   4.697  1.00  0.00     0.076 A 
ATOM     25  C   UNL     1      19.410   9.366   6.741  1.00  0.00     0.026 A 
ATOM     26  N   UNL     1      17.639   7.797   6.331  1.00  0.00    -0.251 NA
ATOM     27  C   UNL     1      18.765   8.164   6.992  1.00  0.00     0.055 A 
BRANCH  21  28
ATOM     28  N   UNL     1      14.373   8.636   2.922  1.00  0.00    -0.323 N 
ATOM     29  H   UNL     1      14.421   7.636   2.770  1.00  0.00     0.170 HD
BRANCH  28  30
ATOM     30  C   UNL     1      13.349   9.349   2.410  1.00  0.00     0.153 A 
ATOM     31  C   UNL     1      12.952  10.590   2.971  1.00  0.00     0.071 A 
ATOM     32  N   UNL     1      12.577   9.043   1.363  1.00  0.00    -0.158 NA
ATOM     33  C   UNL     1      11.889  11.026   2.212  1.00  0.00     0.034 A 
ATOM     34  N   UNL     1      11.715  10.062   1.262  1.00  0.00    -0.281 N 
ATOM     35  C   UNL     1      11.047  12.238   2.282  1.00  0.00     0.066 C 
ATOM     36  H   UNL     1      11.027  10.033   0.516  1.00  0.00     0.190 HD
ENDBRANCH  28  30
ENDBRANCH  21  28
BRANCH  27  37
ATOM     37  C   UNL     1      19.311   7.198   8.028  1.00  0.00     0.140 C 
BRANCH  37  38
ATOM     38  N   UNL     1      19.441   7.774   9.382  1.00  0.00    -0.293 NA
ATOM     39  C   UNL     1      20.340   6.957  10.227  1.00  0.00     0.113 C 
ATOM     40  C   UNL     1      18.112   7.910  10.025  1.00  0.00     0.113 C 
ATOM     41  C   UNL     1      19.598   6.020  11.192  1.00  0.00     0.175 C 
ATOM     42  C   UNL     1      18.217   7.940  11.558  1.00  0.00     0.175 C 
ATOM     43  O   UNL     1      18.750   6.725  12.106  1.00  0.00    -0.379 OA
ENDBRANCH  37  38
ENDBRANCH  27  37
ENDBRANCH  16  18
ENDBRANCH   8  16
TORSDOF 10
ENDMDL
MODEL 2
REMARK minimizedAffinity -8.76347351
REMARK CNNscore 0.969974577
REMARK CNNaffinity 8.46667957
REMARK SMILES C=CCOC(=O)N1[C@@H]2CCC[C@H]1C[C@H](Nc1nc(Nc3cc(C)[nH]n3)cc3nc(CN4CCOCC4)ccc13)C2
REMARK SMILES IDX 7 1 8 2 9 3 10 4 11 5 12 6 13 7 14 8 40 9 5 10 6 11 4 12
REMARK SMILES IDX 3 13 2 14 1 15 15 16 16 18 17 19 39 20 18 21 38 22 27 23
REMARK SMILES IDX 26 24 37 25 28 26 29 27 19 28 20 30 21 31 25 32 22 33 24 34
REMARK SMILES IDX 23 35 30 37 31 38 32 39 36 40 33 41 35 42 34 43
REMARK H PARENT 15 17 19 29 24 36
ROOT
ATOM      1  N   UNL     1      14.791  14.990   3.393  1.00  0.00    -0.302 N 
ATOM      2  C   UNL     1      14.675  14.181   4.609  1.00  0.00     0.091 C 
ATOM      3  C   UNL     1      15.210  14.962   5.827  1.00  0.00     0.025 C 
ATOM      4  C   UNL     1      15.820  16.315   5.456  1.00  0.00     0.004 C 
ATOM      5  C   UNL     1      16.748  16.229   4.244  1.00  0.00     0.025 C 
ATOM      6  C   UNL     1      16.161  15.395   3.085  1.00  0.00     0.091 C 
ATOM      7  C   UNL     1      16.991  14.131   2.787  1.00  0.00     0.050 C 
ATOM      8  C   UNL     1      16.877  13.110   3.934  1.00  0.00     0.084 C 
ATOM      9  C   UNL     1      15.427  12.854   4.379  1.00  0.00     0.050 C 
ENDROOT
BRANCH   1  10
ATOM     10  C   UNL     1      13.827  15.008   2.398  1.00  0.00     0.410 C 
ATOM     11  O   UNL     1      14.054  14.759   1.220  1.00  0.00    -0.224 OA
BRANCH  10  12
ATOM     12  O   UNL     1      12.601  15.344   2.876  1.00  0.00    -0.445 OA
BRANCH  12  13
ATOM     13  C   UNL     1      11.526  15.334   1.931  1.00  0.00     0.262 C 
BRANCH  13  14
ATOM     14  C   UNL     1      10.713  16.579   2.106  1.00  0.00     0.006 C 
ATOM     15  C   UNL     1       9.829  17.052   1.219  1.00  0.00     0.007 C 
ENDBRANCH  13  14
ENDBRANCH  12  13
ENDBRANCH  10  12
ENDBRANCH   1  10
BRANCH   8  16
ATOM     16  N   UNL     1      17.647  11.879   3.708  1.00  0.00    -0.367 N 
ATOM     17  H   UNL     1      18.586  11.962   4.091  1.00  0.00     0.162 HD
BRANCH  16  18
ATOM     18  C   UNL     1      17.149  10.610   4.044  1.00  0.00     0.138 A 
ATOM     19  N   UNL     1      16.042  10.148   3.435  1.00  0.00    -0.213 NA
ATOM     20  C   UNL     1      17.848   9.832   4.998  1.00  0.00     0.043 A 
ATOM     21  C   UNL     1      15.560   8.929   3.760  1.00  0.00     0.136 A 
ATOM     22  C   UNL     1      19.048  10.219   5.636  1.00  0.00     0.016 A 
ATOM     23  C   UNL     1      17.329   8.576   5.337  1.00  0.00     0.078 A 
ATOM     24  C   UNL     1      16.178   8.144   4.714  1.00  0.00     0.076 A 
ATOM     25  C   UNL     1      19.662   9.380   6.559  1.00  0.00     0.026 A 
ATOM     26  N   UNL     1      17.916   7.763   6.238  1.00  0.00    -0.251 NA
ATOM     27  C   UNL     1      19.069   8.156   6.832  1.00  0.00     0.055 A 
BRANCH  21  28
ATOM     28  N   UNL     1      14.419   8.543   3.051  1.00  0.00    -0.323 N 
ATOM     29  H   UNL     1      14.420   7.531   2.998  1.00  0.00     0.170 HD
BRANCH  28  30
ATOM     30  C   UNL     1      13.413   9.247   2.493  1.00  0.00     0.153 A 
ATOM     31  C   UNL     1      12.861  10.387   3.131  1.00  0.00     0.071 A 
ATOM     32  N   UNL     1      12.797   9.019   1.330  1.00  0.00    -0.158 NA
ATOM     33  C   UNL     1      11.867  10.844   2.295  1.00  0.00     0.034 A 
ATOM     34  N   UNL     1      11.878   9.989   1.232  1.00  0.00    -0.281 N 
ATOM     35  C   UNL     1      10.933  11.986   2.389  1.00  0.00     0.066 C 
ATOM     36  H   UNL     1      11.288  10.005   0.405  1.00  0.00     0.190 HD
ENDBRANCH  28  30
ENDBRANCH  21  28
BRANCH  27  37
ATOM     37  C   UNL     1      19.708   7.195   7.819  1.00  0.00     0.140 C 
BRANCH  37  38
ATOM     38  N   UNL     1      20.410   6.058   7.187  1.00  0.00    -0.293 NA
ATOM     39  C   UNL     1      21.446   6.529   6.241  1.00  0.00     0.113 C 
ATOM     40  C   UNL     1      19.448   5.166   6.496  1.00  0.00     0.113 C 
ATOM     41  C   UNL     1      21.004   6.485   4.770  1.00  0.00     0.175 C 
ATOM     42  C   UNL     1      20.122   4.347   5.384  1.00  0.00     0.175 C 
ATOM     43  O   UNL     1      20.659   5.166   4.334  1.00  0.00    -0.379 OA
ENDBRANCH  37  38
ENDBRANCH  27  37
ENDBRANCH  16  18
ENDBRANCH   8  16
TORSDOF 10
ENDMDL
MODEL 3
REMARK minimizedAffinity -8.52624416
REMARK CNNscore 0.933789194
REMARK CNNaffinity 8.11692715
REMARK SMILES C=CCOC(=O)N1[C@@H]2CCC[C@H]1C[C@H](Nc1nc(Nc3cc(C)[nH]n3)cc3nc(CN4CCOCC4)ccc13)C2
REMARK SMILES IDX 7 1 8 2 9 3 10 4 11 5 12 6 13 7 14 8 40 9 5 10 6 11 4 12
REMARK SMILES IDX 3 13 2 14 1 15 15 16 16 18 17 19 39 20 18 21 38 22 27 23
REMARK SMILES IDX 26 24 37 25 28 26 29 27 19 28 20 30 21 31 25 32 22 33 24 34
REMARK SMILES IDX 23 35 30 37 31 38 32 39 36 40 33 41 35 42 34 43
REMARK H PARENT 15 17 19 29 24 36
ROOT
ATOM      1  N   UNL     1      17.007  14.568   3.865  1.00  0.00    -0.302 N 
ATOM      2  C   UNL     1      16.618  14.914   5.234  1.00  0.00     0.091 C 
ATOM      3  C   UNL     1      17.858  15.319   6.060  1.00  0.00     0.025 C 
ATOM      4  C   UNL     1      19.172  15.155   5.294  1.00  0.00     0.004 C 
ATOM      5  C   UNL     1      19.257  13.821   4.551  1.00  0.00     0.025 C 
ATOM      6  C   UNL     1      17.964  13.466   3.787  1.00  0.00     0.091 C 
ATOM      7  C   UNL     1      17.289  12.191   4.329  1.00  0.00     0.050 C 
ATOM      8  C   UNL     1      16.710  12.426   5.736  1.00  0.00     0.084 C 
ATOM      9  C   UNL     1      15.870  13.710   5.842  1.00  0.00     0.050 C 
ENDROOT
BRANCH   1  10
ATOM     10  C   UNL     1      16.254  14.907   2.753  1.00  0.00     0.410 C 
ATOM     11  O   UNL     1      16.570  14.630   1.602  1.00  0.00    -0.224 OA
BRANCH  10  12
ATOM     12  O   UNL     1      15.129  15.593   3.084  1.00  0.00    -0.445 OA
BRANCH  12  13
ATOM     13  C   UNL     1      13.898  15.083   2.561  1.00  0.00     0.262 C 
BRANCH  13  14
ATOM     14  C   UNL     1      12.760  15.657   3.347  1.00  0.00     0.006 C 
ATOM     15  C   UNL     1      11.651  16.189   2.819  1.00  0.00     0.007 C 
ENDBRANCH  13  14
ENDBRANCH  12  13
ENDBRANCH  10  12
ENDBRANCH   1  10
BRANCH   8  16
ATOM     16  N   UNL     1      16.050  11.245   6.309  1.00  0.00    -0.367 N 
ATOM     17  H   UNL     1      15.101  11.465   6.603  1.00  0.00     0.162 HD
BRANCH  16  18
ATOM     18  C   UNL     1      16.025  10.005   5.650  1.00  0.00     0.138 A 
ATOM     19  N   UNL     1      15.268   9.854   4.548  1.00  0.00    -0.213 NA
ATOM     20  C   UNL     1      16.827   8.951   6.148  1.00  0.00     0.043 A 
ATOM     21  C   UNL     1      15.240   8.660   3.916  1.00  0.00     0.136 A 
ATOM     22  C   UNL     1      17.693   9.048   7.260  1.00  0.00     0.016 A 
ATOM     23  C   UNL     1      16.778   7.715   5.491  1.00  0.00     0.078 A 
ATOM     24  C   UNL     1      15.971   7.584   4.381  1.00  0.00     0.076 A 
ATOM     25  C   UNL     1      18.445   7.952   7.670  1.00  0.00     0.026 A 
ATOM     26  N   UNL     1      17.498   6.647   5.891  1.00  0.00    -0.251 NA
ATOM     27  C   UNL     1      18.325   6.768   6.959  1.00  0.00     0.055 A 
BRANCH  21  28
ATOM     28  N   UNL     1      14.438   8.623   2.772  1.00  0.00    -0.323 N 
ATOM     29  H   UNL     1      14.745   7.838   2.209  1.00  0.00     0.170 HD
BRANCH  28  30
ATOM     30  C   UNL     1      13.412   9.392   2.356  1.00  0.00     0.153 A 
ATOM     31  C   UNL     1      13.093  10.617   2.996  1.00  0.00     0.071 A 
ATOM     32  N   UNL     1      12.569   9.162   1.345  1.00  0.00    -0.158 NA
ATOM     33  C   UNL     1      12.004  11.124   2.323  1.00  0.00     0.034 A 
ATOM     34  N   UNL     1      11.739  10.212   1.343  1.00  0.00    -0.281 N 
ATOM     35  C   UNL     1      11.211  12.359   2.499  1.00  0.00     0.066 C 
ATOM     36  H   UNL     1      11.008  10.242   0.639  1.00  0.00     0.190 HD
ENDBRANCH  28  30
ENDBRANCH  21  28
BRANCH  27  37
ATOM     37  C   UNL     1      19.136   5.546   7.353  1.00  0.00     0.140 C 
BRANCH  37  38
ATOM     38  N   UNL     1      18.916   4.370   6.487  1.00  0.00    -0.293 NA
ATOM     39  C   UNL     1      18.278   3.265   7.237  1.00  0.00     0.113 C 
ATOM     40  C   UNL     1      20.193   3.915   5.886  1.00  0.00     0.113 C 
ATOM     41  C   UNL     1      19.264   2.178   7.691  1.00  0.00     0.175 C 
ATOM     42  C   UNL     1      20.139   2.434   5.479  1.00  0.00     0.175 C 
ATOM     43  O   UNL     1      19.944   1.554   6.596  1.00  0.00    -0.379 OA
ENDBRANCH  37  38
ENDBRANCH  27  37
ENDBRANCH  16  18
ENDBRANCH   8  16
TORSDOF 10
ENDMDL
MODEL 4
REMARK minimizedAffinity -8.38803387
REMARK CNNscore 0.92650944
REMARK CNNaffinity 8.00086594
REMARK SMILES C=CCOC(=O)N1[C@@H]2CCC[C@H]1C[C@H](Nc1nc(Nc3cc(C)[nH]n3)cc3nc(CN4CCOCC4)ccc13)C2
REMARK SMILES IDX 7 1 8 2 9 3 10 4 11 5 12 6 13 7 14 8 40 9 5 10 6 11 4 12
REMARK SMILES IDX 3 13 2 14 1 15 15 16 16 18 17 19 39 20 18 21 38 22 27 23
REMARK SMILES IDX 26 24 37 25 28 26 29 27 19 28 20 30 21 31 25 32 22 33 24 34
REMARK SMILES IDX 23 35 30 37 31 38 32 39 36 40 33 41 35 42 34 43
REMARK H PARENT 15 17 19 29 24 36
ROOT
ATOM      1  N   UNL     1      16.348  15.512   5.955  1.00  0.00    -0.302 N 
ATOM      2  C   UNL     1      17.562  14.787   5.571  1.00  0.00     0.091 C 
ATOM      3  C   UNL     1      17.670  14.695   4.035  1.00  0.00     0.025 C 
ATOM      4  C   UNL     1      16.454  15.273   3.309  1.00  0.00     0.004 C 
ATOM      5  C   UNL     1      15.130  14.818   3.924  1.00  0.00     0.025 C 
ATOM      6  C   UNL     1      15.116  14.897   5.465  1.00  0.00     0.091 C 
ATOM      7  C   UNL     1      14.962  13.513   6.126  1.00  0.00     0.050 C 
ATOM      8  C   UNL     1      16.224  12.655   5.915  1.00  0.00     0.084 C 
ATOM      9  C   UNL     1      17.528  13.400   6.246  1.00  0.00     0.050 C 
ENDROOT
BRANCH   1  10
ATOM     10  C   UNL     1      16.299  16.404   7.015  1.00  0.00     0.410 C 
ATOM     11  O   UNL     1      17.290  16.861   7.571  1.00  0.00    -0.224 OA
BRANCH  10  12
ATOM     12  O   UNL     1      15.024  16.706   7.374  1.00  0.00    -0.445 OA
BRANCH  12  13
ATOM     13  C   UNL     1      14.577  18.031   7.071  1.00  0.00     0.262 C 
BRANCH  13  14
ATOM     14  C   UNL     1      13.129  18.150   7.432  1.00  0.00     0.006 C 
ATOM     15  C   UNL     1      12.231  18.898   6.778  1.00  0.00     0.007 C 
ENDBRANCH  13  14
ENDBRANCH  12  13
ENDBRANCH  10  12
ENDBRANCH   1  10
BRANCH   8  16
ATOM     16  N   UNL     1      16.140  11.321   6.525  1.00  0.00    -0.367 N 
ATOM     17  H   UNL     1      15.362  11.268   7.179  1.00  0.00     0.162 HD
BRANCH  16  18
ATOM     18  C   UNL     1      16.148  10.144   5.759  1.00  0.00     0.138 A 
ATOM     19  N   UNL     1      15.466  10.101   4.600  1.00  0.00    -0.213 NA
ATOM     20  C   UNL     1      16.902   9.037   6.216  1.00  0.00     0.043 A 
ATOM     21  C   UNL     1      15.469   8.968   3.865  1.00  0.00     0.136 A 
ATOM     22  C   UNL     1      17.691   9.022   7.388  1.00  0.00     0.016 A 
ATOM     23  C   UNL     1      16.885   7.863   5.451  1.00  0.00     0.078 A 
ATOM     24  C   UNL     1      16.155   7.843   4.282  1.00  0.00     0.076 A 
ATOM     25  C   UNL     1      18.401   7.883   7.750  1.00  0.00     0.026 A 
ATOM     26  N   UNL     1      17.564   6.753   5.803  1.00  0.00    -0.251 NA
ATOM     27  C   UNL     1      18.317   6.767   6.931  1.00  0.00     0.055 A 
BRANCH  21  28
ATOM     28  N   UNL     1      14.747   9.043   2.671  1.00  0.00    -0.323 N 
ATOM     29  H   UNL     1      15.219   8.459   1.991  1.00  0.00     0.170 HD
BRANCH  28  30
ATOM     30  C   UNL     1      13.622   9.704   2.328  1.00  0.00     0.153 A 
ATOM     31  C   UNL     1      13.410  11.055   2.705  1.00  0.00     0.071 A 
ATOM     32  N   UNL     1      12.580   9.245   1.630  1.00  0.00    -0.158 NA
ATOM     33  C   UNL     1      12.175  11.398   2.200  1.00  0.00     0.034 A 
ATOM     34  N   UNL     1      11.730  10.277   1.563  1.00  0.00    -0.281 N 
ATOM     35  C   UNL     1      11.394  12.652   2.248  1.00  0.00     0.066 C 
ATOM     36  H   UNL     1      10.855  10.144   1.064  1.00  0.00     0.190 HD
ENDBRANCH  28  30
ENDBRANCH  21  28
BRANCH  27  37
ATOM     37  C   UNL     1      19.086   5.503   7.270  1.00  0.00     0.140 C 
BRANCH  37  38
ATOM     38  N   UNL     1      20.493   5.511   6.817  1.00  0.00    -0.293 NA
ATOM     39  C   UNL     1      20.960   6.889   6.549  1.00  0.00     0.113 C 
ATOM     40  C   UNL     1      20.660   4.666   5.609  1.00  0.00     0.113 C 
ATOM     41  C   UNL     1      20.953   7.264   5.059  1.00  0.00     0.175 C 
ATOM     42  C   UNL     1      21.890   5.079   4.786  1.00  0.00     0.175 C 
ATOM     43  O   UNL     1      21.794   6.415   4.270  1.00  0.00    -0.379 OA
ENDBRANCH  37  38
ENDBRANCH  27  37
ENDBRANCH  16  18
ENDBRANCH   8  16
TORSDOF 10
ENDMDL
MODEL 5
REMARK minimizedAffinity -8.45687008
REMARK CNNscore 0.918111026
REMARK CNNaffinity 7.93818617
REMARK SMILES C=CCOC(=O)N1[C@@H]2CCC[C@H]1C[C@H](Nc1nc(Nc3cc(C)[nH]n3)cc3nc(CN4CCOCC4)ccc13)C2
REMARK SMILES IDX 7 1 8 2 9 3 10 4 11 5 12 6 13 7 14 8 40 9 5 10 6 11 4 12
REMARK SMILES IDX 3 13 2 14 1 15 15 16 16 18 17 19 39 20 18 21 38 22 27 23
REMARK SMILES IDX 26 24 37 25 28 26 29 27 19 28 20 30 21 31 25 32 22 33 24 34
REMARK SMILES IDX 23 35 30 37 31 38 32 39 36 40 33 41 35 42 34 43
REMARK H PARENT 15 17 19 29 24 36
ROOT
ATOM      1  N   UNL     1      17.681  14.901   4.699  1.00  0.00    -0.302 N 
ATOM      2  C   UNL     1      17.435  13.864   3.694  1.00  0.00     0.091 C 
ATOM      3  C   UNL     1      16.100  14.128   2.965  1.00  0.00     0.025 C 
ATOM      4  C   UNL     1      15.326  15.317   3.535  1.00  0.00     0.004 C 
ATOM      5  C   UNL     1      15.274  15.307   5.063  1.00  0.00     0.025 C 
ATOM      6  C   UNL     1      16.636  14.993   5.717  1.00  0.00     0.091 C 
ATOM      7  C   UNL     1      16.616  13.676   6.519  1.00  0.00     0.050 C 
ATOM      8  C   UNL     1      16.483  12.460   5.585  1.00  0.00     0.084 C 
ATOM      9  C   UNL     1      17.462  12.493   4.399  1.00  0.00     0.050 C 
ENDROOT
BRANCH   1  10
ATOM     10  C   UNL     1      18.935  15.434   4.948  1.00  0.00     0.410 C 
ATOM     11  O   UNL     1      19.169  16.635   5.006  1.00  0.00    -0.224 OA
BRANCH  10  12
ATOM     12  O   UNL     1      19.880  14.471   5.112  1.00  0.00    -0.445 OA
BRANCH  12  13
ATOM     13  C   UNL     1      20.319  14.236   6.454  1.00  0.00     0.262 C 
BRANCH  13  14
ATOM     14  C   UNL     1      20.336  12.760   6.708  1.00  0.00     0.006 C 
ATOM     15  C   UNL     1      19.695  12.145   7.710  1.00  0.00     0.007 C 
ENDBRANCH  13  14
ENDBRANCH  12  13
ENDBRANCH  10  12
ENDBRANCH   1  10
BRANCH   8  16
ATOM     16  N   UNL     1      16.459  11.172   6.291  1.00  0.00    -0.367 N 
ATOM     17  H   UNL     1      15.811  11.198   7.075  1.00  0.00     0.162 HD
BRANCH  16  18
ATOM     18  C   UNL     1      16.283   9.951   5.620  1.00  0.00     0.138 A 
ATOM     19  N   UNL     1      15.614   9.925   4.453  1.00  0.00    -0.213 NA
ATOM     20  C   UNL     1      16.843   8.778   6.178  1.00  0.00     0.043 A 
ATOM     21  C   UNL     1      15.440   8.750   3.809  1.00  0.00     0.136 A 
ATOM     22  C   UNL     1      17.608   8.731   7.365  1.00  0.00     0.016 A 
ATOM     23  C   UNL     1      16.642   7.564   5.508  1.00  0.00     0.078 A 
ATOM     24  C   UNL     1      15.929   7.567   4.328  1.00  0.00     0.076 A 
ATOM     25  C   UNL     1      18.120   7.525   7.831  1.00  0.00     0.026 A 
ATOM     26  N   UNL     1      17.129   6.391   5.960  1.00  0.00    -0.251 NA
ATOM     27  C   UNL     1      17.864   6.375   7.100  1.00  0.00     0.055 A 
BRANCH  21  28
ATOM     28  N   UNL     1      14.750   8.845   2.597  1.00  0.00    -0.323 N 
ATOM     29  H   UNL     1      15.247   8.279   1.918  1.00  0.00     0.170 HD
BRANCH  28  30
ATOM     30  C   UNL     1      13.629   9.502   2.237  1.00  0.00     0.153 A 
ATOM     31  C   UNL     1      13.376  10.830   2.664  1.00  0.00     0.071 A 
ATOM     32  N   UNL     1      12.626   9.058   1.474  1.00  0.00    -0.158 NA
ATOM     33  C   UNL     1      12.158  11.176   2.124  1.00  0.00     0.034 A 
ATOM     34  N   UNL     1      11.760  10.078   1.418  1.00  0.00    -0.281 N 
ATOM     35  C   UNL     1      11.352  12.413   2.195  1.00  0.00     0.066 C 
ATOM     36  H   UNL     1      10.910   9.954   0.876  1.00  0.00     0.190 HD
ENDBRANCH  28  30
ENDBRANCH  21  28
BRANCH  27  37
ATOM     37  C   UNL     1      18.414   5.034   7.555  1.00  0.00     0.140 C 
BRANCH  37  38
ATOM     38  N   UNL     1      17.624   3.871   7.100  1.00  0.00    -0.293 NA
ATOM     39  C   UNL     1      17.069   3.121   8.249  1.00  0.00     0.113 C 
ATOM     40  C   UNL     1      18.446   2.978   6.249  1.00  0.00     0.113 C 
ATOM     41  C   UNL     1      17.870   1.860   8.607  1.00  0.00     0.175 C 
ATOM     42  C   UNL     1      17.904   1.540   6.236  1.00  0.00     0.175 C 
ATOM     43  O   UNL     1      17.934   0.919   7.530  1.00  0.00    -0.379 OA
ENDBRANCH  37  38
ENDBRANCH  27  37
ENDBRANCH  16  18
ENDBRANCH   8  16
TORSDOF 10
ENDMDL
MODEL 6
REMARK minimizedAffinity -8.77235794
REMARK CNNscore 0.879240572
REMARK CNNaffinity 7.8897934
REMARK SMILES C=CCOC(=O)N1[C@@H]2CCC[C@H]1C[C@H](Nc1nc(Nc3cc(C)[nH]n3)cc3nc(CN4CCOCC4)ccc13)C2
REMARK SMILES IDX 7 1 8 2 9 3 10 4 11 5 12 6 13 7 14 8 40 9 5 10 6 11 4 12
REMARK SMILES IDX 3 13 2 14 1 15 15 16 16 18 17 19 39 20 18 21 38 22 27 23
REMARK SMILES IDX 26 24 37 25 28 26 29 27 19 28 20 30 21 31 25 32 22 33 24 34
REMARK SMILES IDX 23 35 30 37 31 38 32 39 36 40 33 41 35 42 34 43
REMARK H PARENT 15 17 19 29 24 36
ROOT
ATOM      1  N   UNL     1      16.300  15.232   5.816  1.00  0.00    -0.302 N 
ATOM      2  C   UNL     1      17.233  14.559   4.908  1.00  0.00     0.091 C 
ATOM      3  C   UNL     1      16.609  14.418   3.504  1.00  0.00     0.025 C 
ATOM      4  C   UNL     1      15.161  14.905   3.435  1.00  0.00     0.004 C 
ATOM      5  C   UNL     1      14.315  14.402   4.607  1.00  0.00     0.025 C 
ATOM      6  C   UNL     1      15.024  14.535   5.971  1.00  0.00     0.091 C 
ATOM      7  C   UNL     1      15.289  13.170   6.635  1.00  0.00     0.050 C 
ATOM      8  C   UNL     1      16.354  12.373   5.859  1.00  0.00     0.084 C 
ATOM      9  C   UNL     1      17.610  13.197   5.528  1.00  0.00     0.050 C 
ENDROOT
BRANCH   1  10
ATOM     10  C   UNL     1      16.700  16.158   6.766  1.00  0.00     0.410 C 
ATOM     11  O   UNL     1      16.131  16.328   7.838  1.00  0.00    -0.224 OA
BRANCH  10  12
ATOM     12  O   UNL     1      17.792  16.863   6.369  1.00  0.00    -0.445 OA
BRANCH  12  13
ATOM     13  C   UNL     1      18.457  17.626   7.381  1.00  0.00     0.262 C 
BRANCH  13  14
ATOM     14  C   UNL     1      19.819  18.004   6.889  1.00  0.00     0.006 C 
ATOM     15  C   UNL     1      20.929  18.026   7.637  1.00  0.00     0.007 C 
ENDBRANCH  13  14
ENDBRANCH  12  13
ENDBRANCH  10  12
ENDBRANCH   1  10
BRANCH   8  16
ATOM     16  N   UNL     1      16.652  11.059   6.444  1.00  0.00    -0.367 N 
ATOM     17  H   UNL     1      16.225  10.964   7.363  1.00  0.00     0.162 HD
BRANCH  16  18
ATOM     18  C   UNL     1      16.448   9.860   5.742  1.00  0.00     0.138 A 
ATOM     19  N   UNL     1      15.804   9.883   4.562  1.00  0.00    -0.213 NA
ATOM     20  C   UNL     1      16.958   8.656   6.284  1.00  0.00     0.043 A 
ATOM     21  C   UNL     1      15.603   8.730   3.887  1.00  0.00     0.136 A 
ATOM     22  C   UNL     1      17.696   8.557   7.485  1.00  0.00     0.016 A 
ATOM     23  C   UNL     1      16.730   7.466   5.582  1.00  0.00     0.078 A 
ATOM     24  C   UNL     1      16.042   7.520   4.389  1.00  0.00     0.076 A 
ATOM     25  C   UNL     1      18.158   7.324   7.932  1.00  0.00     0.026 A 
ATOM     26  N   UNL     1      17.168   6.267   6.017  1.00  0.00    -0.251 NA
ATOM     27  C   UNL     1      17.878   6.200   7.170  1.00  0.00     0.055 A 
BRANCH  21  28
ATOM     28  N   UNL     1      14.942   8.875   2.665  1.00  0.00    -0.323 N 
ATOM     29  H   UNL     1      15.494   8.400   1.961  1.00  0.00     0.170 HD
BRANCH  28  30
ATOM     30  C   UNL     1      13.788   9.483   2.321  1.00  0.00     0.153 A 
ATOM     31  C   UNL     1      13.483  10.798   2.755  1.00  0.00     0.071 A 
ATOM     32  N   UNL     1      12.796   8.997   1.570  1.00  0.00    -0.158 NA
ATOM     33  C   UNL     1      12.243  11.091   2.230  1.00  0.00     0.034 A 
ATOM     34  N   UNL     1      11.885   9.978   1.527  1.00  0.00    -0.281 N 
ATOM     35  C   UNL     1      11.385  12.292   2.315  1.00  0.00     0.066 C 
ATOM     36  H   UNL     1      11.035   9.818   0.995  1.00  0.00     0.190 HD
ENDBRANCH  28  30
ENDBRANCH  21  28
BRANCH  27  37
ATOM     37  C   UNL     1      18.374   4.832   7.604  1.00  0.00     0.140 C 
BRANCH  37  38
ATOM     38  N   UNL     1      19.662   4.436   6.999  1.00  0.00    -0.293 NA
ATOM     39  C   UNL     1      20.398   5.614   6.489  1.00  0.00     0.113 C 
ATOM     40  C   UNL     1      19.451   3.450   5.912  1.00  0.00     0.113 C 
ATOM     41  C   UNL     1      20.266   5.815   4.972  1.00  0.00     0.175 C 
ATOM     42  C   UNL     1      20.613   3.449   4.906  1.00  0.00     0.175 C 
ATOM     43  O   UNL     1      20.761   4.701   4.221  1.00  0.00    -0.379 OA
ENDBRANCH  37  38
ENDBRANCH  27  37
ENDBRANCH  16  18
ENDBRANCH   8  16
TORSDOF 10
ENDMDL
MODEL 7
REMARK minimizedAffinity -8.10960484
REMARK CNNscore 0.72720927
REMARK CNNaffinity 7.59013033
REMARK SMILES C=CCOC(=O)N1[C@@H]2CCC[C@H]1C[C@H](Nc1nc(Nc3cc(C)[nH]n3)cc3nc(CN4CCOCC4)ccc13)C2
REMARK SMILES IDX 7 1 8 2 9 3 10 4 11 5 12 6 13 7 14 8 40 9 5 10 6 11 4 12
REMARK SMILES IDX 3 13 2 14 1 15 15 16 16 18 17 19 39 20 18 21 38 22 27 23
REMARK SMILES IDX 26 24 37 25 28 26 29 27 19 28 20 30 21 31 25 32 22 33 24 34
REMARK SMILES IDX 23 35 30 37 31 38 32 39 36 40 33 41 35 42 34 43
REMARK H PARENT 15 17 19 29 24 36
ROOT
ATOM      1  N   UNL     1      16.586  15.520   6.141  1.00  0.00    -0.302 N 
ATOM      2  C   UNL     1      17.656  14.760   6.793  1.00  0.00     0.091 C 
ATOM      3  C   UNL     1      18.986  15.539   6.727  1.00  0.00     0.025 C 
ATOM      4  C   UNL     1      18.888  16.833   5.917  1.00  0.00     0.004 C 
ATOM      5  C   UNL     1      18.145  16.643   4.593  1.00  0.00     0.025 C 
ATOM      6  C   UNL     1      16.849  15.818   4.735  1.00  0.00     0.091 C 
ATOM      7  C   UNL     1      16.908  14.489   3.955  1.00  0.00     0.050 C 
ATOM      8  C   UNL     1      17.915  13.515   4.594  1.00  0.00     0.084 C 
ATOM      9  C   UNL     1      17.745  13.377   6.117  1.00  0.00     0.050 C 
ENDROOT
BRANCH   1  10
ATOM     10  C   UNL     1      15.289  15.575   6.626  1.00  0.00     0.410 C 
ATOM     11  O   UNL     1      14.701  14.619   7.118  1.00  0.00    -0.224 OA
BRANCH  10  12
ATOM     12  O   UNL     1      14.740  16.809   6.485  1.00  0.00    -0.445 OA
BRANCH  12  13
ATOM     13  C   UNL     1      14.297  17.449   7.686  1.00  0.00     0.262 C 
BRANCH  13  14
ATOM     14  C   UNL     1      13.283  18.494   7.337  1.00  0.00     0.006 C 
ATOM     15  C   UNL     1      11.956  18.323   7.380  1.00  0.00     0.007 C 
ENDBRANCH  13  14
ENDBRANCH  12  13
ENDBRANCH  10  12
ENDBRANCH   1  10
BRANCH   8  16
ATOM     16  N   UNL     1      18.016  12.227   3.896  1.00  0.00    -0.367 N 
ATOM     17  H   UNL     1      18.988  11.950   3.781  1.00  0.00     0.162 HD
BRANCH  16  18
ATOM     18  C   UNL     1      17.286  11.096   4.297  1.00  0.00     0.138 A 
ATOM     19  N   UNL     1      15.946  11.092   4.172  1.00  0.00    -0.213 NA
ATOM     20  C   UNL     1      17.986   9.972   4.796  1.00  0.00     0.043 A 
ATOM     21  C   UNL     1      15.242  10.007   4.562  1.00  0.00     0.136 A 
ATOM     22  C   UNL     1      19.392   9.875   4.902  1.00  0.00     0.016 A 
ATOM     23  C   UNL     1      17.243   8.859   5.210  1.00  0.00     0.078 A 
ATOM     24  C   UNL     1      15.870   8.897   5.094  1.00  0.00     0.076 A 
ATOM     25  C   UNL     1      19.986   8.722   5.403  1.00  0.00     0.026 A 
ATOM     26  N   UNL     1      17.815   7.743   5.705  1.00  0.00    -0.251 NA
ATOM     27  C   UNL     1      19.166   7.674   5.791  1.00  0.00     0.055 A 
BRANCH  21  28
ATOM     28  N   UNL     1      13.862  10.104   4.367  1.00  0.00    -0.323 N 
ATOM     29  H   UNL     1      13.429  10.172   5.280  1.00  0.00     0.170 HD
BRANCH  28  30
ATOM     30  C   UNL     1      13.100  10.131   3.255  1.00  0.00     0.153 A 
ATOM     31  C   UNL     1      12.337  11.274   2.903  1.00  0.00     0.071 A 
ATOM     32  N   UNL     1      12.932   9.162   2.350  1.00  0.00    -0.158 NA
ATOM     33  C   UNL     1      11.687  10.950   1.732  1.00  0.00     0.034 A 
ATOM     34  N   UNL     1      12.087   9.677   1.448  1.00  0.00    -0.281 N 
ATOM     35  C   UNL     1      10.757  11.706   0.868  1.00  0.00     0.066 C 
ATOM     36  H   UNL     1      11.822   9.097   0.657  1.00  0.00     0.190 HD
ENDBRANCH  28  30
ENDBRANCH  21  28
BRANCH  27  37
ATOM     37  C   UNL     1      19.765   6.386   6.329  1.00  0.00     0.140 C 
BRANCH  37  38
ATOM     38  N   UNL     1      19.727   5.258   5.375  1.00  0.00    -0.293 NA
ATOM     39  C   UNL     1      19.553   3.968   6.079  1.00  0.00     0.113 C 
ATOM     40  C   UNL     1      20.955   5.231   4.545  1.00  0.00     0.113 C 
ATOM     41  C   UNL     1      20.861   3.181   6.256  1.00  0.00     0.175 C 
ATOM     42  C   UNL     1      21.237   3.829   3.984  1.00  0.00     0.175 C 
ATOM     43  O   UNL     1      21.484   2.855   5.009  1.00  0.00    -0.379 OA
ENDBRANCH  37  38
ENDBRANCH  27  37
ENDBRANCH  16  18
ENDBRANCH   8  16
TORSDOF 10
ENDMDL
MODEL 8
REMARK minimizedAffinity -7.93615341
REMARK CNNscore 0.638752401
REMARK CNNaffinity 7.30667877
REMARK SMILES C=CCOC(=O)N1[C@@H]2CCC[C@H]1C[C@H](Nc1nc(Nc3cc(C)[nH]n3)cc3nc(CN4CCOCC4)ccc13)C2
REMARK SMILES IDX 7 1 8 2 9 3 10 4 11 5 12 6 13 7 14 8 40 9 5 10 6 11 4 12
REMARK SMILES IDX 3 13 2 14 1 15 15 16 16 18 17 19 39 20 18 21 38 22 27 23
REMARK SMILES IDX 26 24 37 25 28 26 29 27 19 28 20 30 21 31 25 32 22 33 24 34
REMARK SMILES IDX 23 35 30 37 31 38 32 39 36 40 33 41 35 42 34 43
REMARK H PARENT 15 17 19 29 24 36
ROOT
ATOM      1  N   UNL     1      16.891  15.335   6.272  1.00  0.00    -0.302 N 
ATOM      2  C   UNL     1      18.074  14.565   6.665  1.00  0.00     0.091 C 
ATOM      3  C   UNL     1      19.359  15.360   6.354  1.00  0.00     0.025 C 
ATOM      4  C   UNL     1      19.093  16.678   5.626  1.00  0.00     0.004 C 
ATOM      5  C   UNL     1      18.095  16.524   4.477  1.00  0.00     0.025 C 
ATOM      6  C   UNL     1      16.859  15.681   4.852  1.00  0.00     0.091 C 
ATOM      7  C   UNL     1      16.761  14.379   4.033  1.00  0.00     0.050 C 
ATOM      8  C   UNL     1      17.881  13.395   4.418  1.00  0.00     0.084 C 
ATOM      9  C   UNL     1      18.028  13.206   5.938  1.00  0.00     0.050 C 
ENDROOT
BRANCH   1  10
ATOM     10  C   UNL     1      15.721  15.360   7.014  1.00  0.00     0.410 C 
ATOM     11  O   UNL     1      14.829  14.526   6.916  1.00  0.00    -0.224 OA
BRANCH  10  12
ATOM     12  O   UNL     1      15.670  16.424   7.858  1.00  0.00    -0.445 OA
BRANCH  12  13
ATOM     13  C   UNL     1      15.360  17.689   7.266  1.00  0.00     0.262 C 
BRANCH  13  14
ATOM     14  C   UNL     1      13.883  17.768   7.031  1.00  0.00     0.006 C 
ATOM     15  C   UNL     1      12.968  18.045   7.968  1.00  0.00     0.007 C 
ENDBRANCH  13  14
ENDBRANCH  12  13
ENDBRANCH  10  12
ENDBRANCH   1  10
BRANCH   8  16
ATOM     16  N   UNL     1      17.840  12.131   3.671  1.00  0.00    -0.367 N 
ATOM     17  H   UNL     1      18.773  11.857   3.369  1.00  0.00     0.162 HD
BRANCH  16  18
ATOM     18  C   UNL     1      17.187  10.989   4.162  1.00  0.00     0.138 A 
ATOM     19  N   UNL     1      15.852  10.883   4.036  1.00  0.00    -0.213 NA
ATOM     20  C   UNL     1      17.960   9.960   4.751  1.00  0.00     0.043 A 
ATOM     21  C   UNL     1      15.221   9.786   4.511  1.00  0.00     0.136 A 
ATOM     22  C   UNL     1      19.368   9.969   4.866  1.00  0.00     0.016 A 
ATOM     23  C   UNL     1      17.292   8.836   5.252  1.00  0.00     0.078 A 
ATOM     24  C   UNL     1      15.920   8.769   5.133  1.00  0.00     0.076 A 
ATOM     25  C   UNL     1      20.037   8.905   5.459  1.00  0.00     0.026 A 
ATOM     26  N   UNL     1      17.936   7.805   5.837  1.00  0.00    -0.251 NA
ATOM     27  C   UNL     1      19.288   7.837   5.931  1.00  0.00     0.055 A 
BRANCH  21  28
ATOM     28  N   UNL     1      13.839   9.772   4.307  1.00  0.00    -0.323 N 
ATOM     29  H   UNL     1      13.399   9.625   5.208  1.00  0.00     0.170 HD
BRANCH  28  30
ATOM     30  C   UNL     1      13.081   9.922   3.202  1.00  0.00     0.153 A 
ATOM     31  C   UNL     1      12.402  11.136   2.925  1.00  0.00     0.071 A 
ATOM     32  N   UNL     1      12.845   9.026   2.240  1.00  0.00    -0.158 NA
ATOM     33  C   UNL     1      11.731  10.932   1.739  1.00  0.00     0.034 A 
ATOM     34  N   UNL     1      12.038   9.654   1.375  1.00  0.00    -0.281 N 
ATOM     35  C   UNL     1      10.857  11.805   0.928  1.00  0.00     0.066 C 
ATOM     36  H   UNL     1      11.732   9.144   0.551  1.00  0.00     0.190 HD
ENDBRANCH  28  30
ENDBRANCH  21  28
BRANCH  27  37
ATOM     37  C   UNL     1      19.970   6.641   6.572  1.00  0.00     0.140 C 
BRANCH  37  38
ATOM     38  N   UNL     1      20.162   6.766   8.032  1.00  0.00    -0.293 NA
ATOM     39  C   UNL     1      19.013   6.202   8.773  1.00  0.00     0.113 C 
ATOM     40  C   UNL     1      20.376   8.183   8.413  1.00  0.00     0.113 C 
ATOM     41  C   UNL     1      18.019   7.262   9.271  1.00  0.00     0.175 C 
ATOM     42  C   UNL     1      20.008   8.443   9.882  1.00  0.00     0.175 C 
ATOM     43  O   UNL     1      18.620   8.209  10.161  1.00  0.00    -0.379 OA
ENDBRANCH  37  38
ENDBRANCH  27  37
ENDBRANCH  16  18
ENDBRANCH   8  16
TORSDOF 10
ENDMDL
MODEL 9
REMARK minimizedAffinity -6.01884222
REMARK CNNscore 0.150041968
REMARK CNNaffinity 5.38450098
REMARK SMILES C=CCOC(=O)N1[C@@H]2CCC[C@H]1C[C@H](Nc1nc(Nc3cc(C)[nH]n3)cc3nc(CN4CCOCC4)ccc13)C2
REMARK SMILES IDX 7 1 8 2 9 3 10 4 11 5 12 6 13 7 14 8 40 9 5 10 6 11 4 12
REMARK SMILES IDX 3 13 2 14 1 15 15 16 16 18 17 19 39 20 18 21 38 22 27 23
REMARK SMILES IDX 26 24 37 25 28 26 29 27 19 28 20 30 21 31 25 32 22 33 24 34
REMARK SMILES IDX 23 35 30 37 31 38 32 39 36 40 33 41 35 42 34 43
REMARK H PARENT 15 17 19 29 24 36
ROOT
ATOM      1  N   UNL     1       8.321   2.497  -3.672  1.00  0.00    -0.302 N 
ATOM      2  C   UNL     1       9.200   3.111  -2.674  1.00  0.00     0.091 C 
ATOM      3  C   UNL     1      10.602   2.469  -2.726  1.00  0.00     0.025 C 
ATOM      4  C   UNL     1      10.695   1.300  -3.708  1.00  0.00     0.004 C 
ATOM      5  C   UNL     1       9.513   0.338  -3.589  1.00  0.00     0.025 C 
ATOM      6  C   UNL     1       8.150   1.055  -3.498  1.00  0.00     0.091 C 
ATOM      7  C   UNL     1       7.440   0.805  -2.153  1.00  0.00     0.050 C 
ATOM      8  C   UNL     1       8.183   1.497  -0.996  1.00  0.00     0.084 C 
ATOM      9  C   UNL     1       8.534   2.966  -1.290  1.00  0.00     0.050 C 
ENDROOT
BRANCH   1  10
ATOM     10  C   UNL     1       7.399   3.215  -4.417  1.00  0.00     0.410 C 
ATOM     11  O   UNL     1       6.809   4.206  -4.004  1.00  0.00    -0.224 OA
BRANCH  10  12
ATOM     12  O   UNL     1       7.215   2.687  -5.655  1.00  0.00    -0.445 OA
BRANCH  12  13
ATOM     13  C   UNL     1       8.225   2.981  -6.626  1.00  0.00     0.262 C 
BRANCH  13  14
ATOM     14  C   UNL     1       8.770   1.695  -7.166  1.00  0.00     0.006 C 
ATOM     15  C   UNL     1       9.372   1.552  -8.353  1.00  0.00     0.007 C 
ENDBRANCH  13  14
ENDBRANCH  12  13
ENDBRANCH  10  12
ENDBRANCH   1  10
BRANCH   8  16
ATOM     16  N   UNL     1       7.553   1.296   0.316  1.00  0.00    -0.367 N 
ATOM     17  H   UNL     1       6.542   1.394   0.253  1.00  0.00     0.162 HD
BRANCH  16  18
ATOM     18  C   UNL     1       7.834   0.181   1.121  1.00  0.00     0.138 A 
ATOM     19  N   UNL     1       6.845  -0.671   1.445  1.00  0.00    -0.213 NA
ATOM     20  C   UNL     1       9.166  -0.035   1.548  1.00  0.00     0.043 A 
ATOM     21  C   UNL     1       7.113  -1.742   2.223  1.00  0.00     0.136 A 
ATOM     22  C   UNL     1      10.269   0.777   1.203  1.00  0.00     0.016 A 
ATOM     23  C   UNL     1       9.427  -1.141   2.367  1.00  0.00     0.078 A 
ATOM     24  C   UNL     1       8.386  -1.980   2.703  1.00  0.00     0.076 A 
ATOM     25  C   UNL     1      11.543   0.478   1.672  1.00  0.00     0.026 A 
ATOM     26  N   UNL     1      10.660  -1.430   2.832  1.00  0.00    -0.251 NA
ATOM     27  C   UNL     1      11.703  -0.637   2.481  1.00  0.00     0.055 A 
BRANCH  21  28
ATOM     28  N   UNL     1       6.016  -2.570   2.478  1.00  0.00    -0.323 N 
ATOM     29  H   UNL     1       5.180  -2.006   2.381  1.00  0.00     0.170 HD
BRANCH  28  30
ATOM     30  C   UNL     1       5.916  -3.878   2.790  1.00  0.00     0.153 A 
ATOM     31  C   UNL     1       5.588  -4.852   1.813  1.00  0.00     0.071 A 
ATOM     32  N   UNL     1       6.091  -4.454   3.982  1.00  0.00    -0.158 NA
ATOM     33  C   UNL     1       5.567  -6.060   2.474  1.00  0.00     0.034 A 
ATOM     34  N   UNL     1       5.881  -5.759   3.768  1.00  0.00    -0.281 N 
ATOM     35  C   UNL     1       5.298  -7.440   2.020  1.00  0.00     0.066 C 
ATOM     36  H   UNL     1       5.967  -6.392   4.557  1.00  0.00     0.190 HD
ENDBRANCH  28  30
ENDBRANCH  21  28
BRANCH  27  37
ATOM     37  C   UNL     1      13.075  -1.019   3.006  1.00  0.00     0.140 C 
BRANCH  37  38
ATOM     38  N   UNL     1      14.041  -1.395   1.953  1.00  0.00    -0.293 NA
ATOM     39  C   UNL     1      13.572  -2.575   1.194  1.00  0.00     0.113 C 
ATOM     40  C   UNL     1      15.379  -1.656   2.537  1.00  0.00     0.113 C 
ATOM     41  C   UNL     1      14.230  -3.892   1.632  1.00  0.00     0.175 C 
ATOM     42  C   UNL     1      16.226  -2.574   1.641  1.00  0.00     0.175 C 
ATOM     43  O   UNL     1      15.653  -3.879   1.477  1.00  0.00    -0.379 OA
ENDBRANCH  37  38
ENDBRANCH  27  37
ENDBRANCH  16  18
ENDBRANCH   8  16
TORSDOF 10
ENDMDL
