MODEL 1
REMARK minimizedAffinity -8.61184025
REMARK CNNscore 0.945786119
REMARK CNNaffinity 7.99575377
REMARK SMILES C=CCOC(=O)N1[C@@H]2CCC[C@H]1C[C@@H](Nc1nc(Nc3cc(C)[nH]n3)cc3nc(CN4CCOCC4)ccc13)C2
REMARK SMILES IDX 7 1 8 2 9 3 10 4 11 5 12 6 13 7 14 8 40 9 5 10 6 11 4 12
REMARK SMILES IDX 3 13 2 14 1 15 15 16 16 18 17 19 39 20 18 21 38 22 27 23
REMARK SMILES IDX 26 24 37 25 28 26 29 27 19 28 20 30 21 31 25 32 22 33 24 34
REMARK SMILES IDX 23 35 30 37 31 38 32 39 36 40 33 41 35 42 34 43
REMARK H PARENT 15 17 19 29 24 36
ROOT
ATOM      1  N   UNL     1      17.177  14.723   5.337  1.00  0.00    -0.302 N 
ATOM      2  C   UNL     1      16.974  14.309   6.723  1.00  0.00     0.091 C 
ATOM      3  C   UNL     1      18.219  13.587   7.272  1.00  0.00     0.025 C 
ATOM      4  C   UNL     1      19.293  13.339   6.216  1.00  0.00     0.004 C 
ATOM      5  C   UNL     1      18.724  12.844   4.889  1.00  0.00     0.025 C 
ATOM      6  C   UNL     1      17.458  13.602   4.446  1.00  0.00     0.091 C 
ATOM      7  C   UNL     1      16.206  12.708   4.383  1.00  0.00     0.050 C 
ATOM      8  C   UNL     1      15.664  12.283   5.768  1.00  0.00     0.084 C 
ATOM      9  C   UNL     1      15.694  13.452   6.781  1.00  0.00     0.050 C 
ENDROOT
BRANCH   1  10
ATOM     10  C   UNL     1      16.662  15.898   4.811  1.00  0.00     0.410 C 
ATOM     11  O   UNL     1      17.030  16.389   3.751  1.00  0.00    -0.224 OA
BRANCH  10  12
ATOM     12  O   UNL     1      15.697  16.437   5.602  1.00  0.00    -0.445 OA
BRANCH  12  13
ATOM     13  C   UNL     1      16.067  17.597   6.355  1.00  0.00     0.262 C 
BRANCH  13  14
ATOM     14  C   UNL     1      14.963  17.920   7.317  1.00  0.00     0.006 C 
ATOM     15  C   UNL     1      14.023  17.054   7.719  1.00  0.00     0.007 C 
ENDBRANCH  13  14
ENDBRANCH  12  13
ENDBRANCH  10  12
ENDBRANCH   1  10
BRANCH   8  16
ATOM     16  N   UNL     1      16.400  11.134   6.318  1.00  0.00    -0.367 N 
ATOM     17  H   UNL     1      16.136  10.944   7.283  1.00  0.00     0.162 HD
BRANCH  16  18
ATOM     18  C   UNL     1      16.274   9.901   5.633  1.00  0.00     0.138 A 
ATOM     19  N   UNL     1      15.599   9.867   4.467  1.00  0.00    -0.213 NA
ATOM     20  C   UNL     1      16.860   8.745   6.189  1.00  0.00     0.043 A 
ATOM     21  C   UNL     1      15.461   8.695   3.814  1.00  0.00     0.136 A 
ATOM     22  C   UNL     1      17.608   8.718   7.387  1.00  0.00     0.016 A 
ATOM     23  C   UNL     1      16.704   7.532   5.504  1.00  0.00     0.078 A 
ATOM     24  C   UNL     1      15.999   7.524   4.318  1.00  0.00     0.076 A 
ATOM     25  C   UNL     1      18.145   7.524   7.855  1.00  0.00     0.026 A 
ATOM     26  N   UNL     1      17.222   6.373   5.956  1.00  0.00    -0.251 NA
ATOM     27  C   UNL     1      17.935   6.372   7.112  1.00  0.00     0.055 A 
BRANCH  21  28
ATOM     28  N   UNL     1      14.742   8.783   2.623  1.00  0.00    -0.323 N 
ATOM     29  H   UNL     1      15.219   8.211   1.937  1.00  0.00     0.170 HD
BRANCH  28  30
ATOM     30  C   UNL     1      13.620   9.444   2.275  1.00  0.00     0.153 A 
ATOM     31  C   UNL     1      13.264  10.667   2.899  1.00  0.00     0.071 A 
ATOM     32  N   UNL     1      12.711   9.102   1.360  1.00  0.00    -0.158 NA
ATOM     33  C   UNL     1      12.082  11.058   2.314  1.00  0.00     0.034 A 
ATOM     34  N   UNL     1      11.801  10.085   1.398  1.00  0.00    -0.281 N 
ATOM     35  C   UNL     1      11.209  12.232   2.520  1.00  0.00     0.066 C 
ATOM     36  H   UNL     1      11.008  10.026   0.768  1.00  0.00     0.190 HD
ENDBRANCH  28  30
ENDBRANCH  21  28
BRANCH  27  37
ATOM     37  C   UNL     1      18.495   5.041   7.582  1.00  0.00     0.140 C 
BRANCH  37  38
ATOM     38  N   UNL     1      17.700   3.871   7.156  1.00  0.00    -0.293 NA
ATOM     39  C   UNL     1      17.037   3.224   8.310  1.00  0.00     0.113 C 
ATOM     40  C   UNL     1      18.551   2.893   6.434  1.00  0.00     0.113 C 
ATOM     41  C   UNL     1      17.776   1.978   8.825  1.00  0.00     0.175 C 
ATOM     42  C   UNL     1      17.969   1.473   6.495  1.00  0.00     0.175 C 
ATOM     43  O   UNL     1      17.903   0.953   7.831  1.00  0.00    -0.379 OA
ENDBRANCH  37  38
ENDBRANCH  27  37
ENDBRANCH  16  18
ENDBRANCH   8  16
TORSDOF 10
ENDMDL
MODEL 2
REMARK minimizedAffinity -8.54953289
REMARK CNNscore 0.94260323
REMARK CNNaffinity 8.23712921
REMARK SMILES C=CCOC(=O)N1[C@@H]2CCC[C@H]1C[C@@H](Nc1nc(Nc3cc(C)[nH]n3)cc3nc(CN4CCOCC4)ccc13)C2
REMARK SMILES IDX 7 1 8 2 9 3 10 4 11 5 12 6 13 7 14 8 40 9 5 10 6 11 4 12
REMARK SMILES IDX 3 13 2 14 1 15 15 16 16 18 17 19 39 20 18 21 38 22 27 23
REMARK SMILES IDX 26 24 37 25 28 26 29 27 19 28 20 30 21 31 25 32 22 33 24 34
REMARK SMILES IDX 23 35 30 37 31 38 32 39 36 40 33 41 35 42 34 43
REMARK H PARENT 15 17 19 29 24 36
ROOT
ATOM      1  N   UNL     1      15.726  15.601   4.691  1.00  0.00    -0.302 N 
ATOM      2  C   UNL     1      16.805  15.385   3.731  1.00  0.00     0.091 C 
ATOM      3  C   UNL     1      16.255  14.855   2.393  1.00  0.00     0.025 C 
ATOM      4  C   UNL     1      14.762  14.537   2.431  1.00  0.00     0.004 C 
ATOM      5  C   UNL     1      14.339  13.806   3.702  1.00  0.00     0.025 C 
ATOM      6  C   UNL     1      14.972  14.386   4.981  1.00  0.00     0.091 C 
ATOM      7  C   UNL     1      15.909  13.396   5.697  1.00  0.00     0.050 C 
ATOM      8  C   UNL     1      17.243  13.141   4.957  1.00  0.00     0.084 C 
ATOM      9  C   UNL     1      17.840  14.447   4.381  1.00  0.00     0.050 C 
ENDROOT
BRANCH   1  10
ATOM     10  C   UNL     1      15.723  16.640   5.610  1.00  0.00     0.410 C 
ATOM     11  O   UNL     1      16.731  17.236   5.968  1.00  0.00    -0.224 OA
BRANCH  10  12
ATOM     12  O   UNL     1      14.473  16.925   6.061  1.00  0.00    -0.445 OA
BRANCH  12  13
ATOM     13  C   UNL     1      14.253  16.764   7.467  1.00  0.00     0.262 C 
BRANCH  13  14
ATOM     14  C   UNL     1      13.283  17.812   7.926  1.00  0.00     0.006 C 
ATOM     15  C   UNL     1      12.195  18.195   7.245  1.00  0.00     0.007 C 
ENDBRANCH  13  14
ENDBRANCH  12  13
ENDBRANCH  10  12
ENDBRANCH   1  10
BRANCH   8  16
ATOM     16  N   UNL     1      17.094  12.149   3.880  1.00  0.00    -0.367 N 
ATOM     17  H   UNL     1      17.975  11.984   3.396  1.00  0.00     0.162 HD
BRANCH  16  18
ATOM     18  C   UNL     1      16.606  10.871   4.245  1.00  0.00     0.138 A 
ATOM     19  N   UNL     1      15.408  10.471   3.776  1.00  0.00    -0.213 NA
ATOM     20  C   UNL     1      17.388  10.054   5.087  1.00  0.00     0.043 A 
ATOM     21  C   UNL     1      14.928   9.260   4.130  1.00  0.00     0.136 A 
ATOM     22  C   UNL     1      18.664  10.399   5.585  1.00  0.00     0.016 A 
ATOM     23  C   UNL     1      16.875   8.802   5.453  1.00  0.00     0.078 A 
ATOM     24  C   UNL     1      15.640   8.421   4.967  1.00  0.00     0.076 A 
ATOM     25  C   UNL     1      19.357   9.523   6.413  1.00  0.00     0.026 A 
ATOM     26  N   UNL     1      17.544   7.951   6.257  1.00  0.00    -0.251 NA
ATOM     27  C   UNL     1      18.767   8.307   6.726  1.00  0.00     0.055 A 
BRANCH  21  28
ATOM     28  N   UNL     1      13.680   8.958   3.587  1.00  0.00    -0.323 N 
ATOM     29  H   UNL     1      13.350   8.113   4.037  1.00  0.00     0.170 HD
BRANCH  28  30
ATOM     30  C   UNL     1      12.918   9.554   2.649  1.00  0.00     0.153 A 
ATOM     31  C   UNL     1      12.493  10.900   2.792  1.00  0.00     0.071 A 
ATOM     32  N   UNL     1      12.458   9.036   1.508  1.00  0.00    -0.158 NA
ATOM     33  C   UNL     1      11.744  11.179   1.672  1.00  0.00     0.034 A 
ATOM     34  N   UNL     1      11.761  10.028   0.938  1.00  0.00    -0.281 N 
ATOM     35  C   UNL     1      11.032  12.395   1.229  1.00  0.00     0.066 C 
ATOM     36  H   UNL     1      11.318   9.847   0.043  1.00  0.00     0.190 HD
ENDBRANCH  28  30
ENDBRANCH  21  28
BRANCH  27  37
ATOM     37  C   UNL     1      19.480   7.317   7.630  1.00  0.00     0.140 C 
BRANCH  37  38
ATOM     38  N   UNL     1      20.204   6.254   6.902  1.00  0.00    -0.293 NA
ATOM     39  C   UNL     1      21.617   6.628   6.672  1.00  0.00     0.113 C 
ATOM     40  C   UNL     1      19.534   5.952   5.613  1.00  0.00     0.113 C 
ATOM     41  C   UNL     1      21.889   7.170   5.259  1.00  0.00     0.175 C 
ATOM     42  C   UNL     1      20.505   5.336   4.594  1.00  0.00     0.175 C 
ATOM     43  O   UNL     1      21.570   6.225   4.229  1.00  0.00    -0.379 OA
ENDBRANCH  37  38
ENDBRANCH  27  37
ENDBRANCH  16  18
ENDBRANCH   8  16
TORSDOF 10
ENDMDL
MODEL 3
REMARK minimizedAffinity -8.16179848
REMARK CNNscore 0.894438148
REMARK CNNaffinity 8.24179363
REMARK SMILES C=CCOC(=O)N1[C@@H]2CCC[C@H]1C[C@@H](Nc1nc(Nc3cc(C)[nH]n3)cc3nc(CN4CCOCC4)ccc13)C2
REMARK SMILES IDX 7 1 8 2 9 3 10 4 11 5 12 6 13 7 14 8 40 9 5 10 6 11 4 12
REMARK SMILES IDX 3 13 2 14 1 15 15 16 16 18 17 19 39 20 18 21 38 22 27 23
REMARK SMILES IDX 26 24 37 25 28 26 29 27 19 28 20 30 21 31 25 32 22 33 24 34
REMARK SMILES IDX 23 35 30 37 31 38 32 39 36 40 33 41 35 42 34 43
REMARK H PARENT 15 17 19 29 24 36
ROOT
ATOM      1  N   UNL     1      15.793  14.855   5.413  1.00  0.00    -0.302 N 
ATOM      2  C   UNL     1      15.385  13.497   5.761  1.00  0.00     0.091 C 
ATOM      3  C   UNL     1      16.337  12.885   6.806  1.00  0.00     0.025 C 
ATOM      4  C   UNL     1      17.548  13.762   7.113  1.00  0.00     0.004 C 
ATOM      5  C   UNL     1      18.178  14.372   5.863  1.00  0.00     0.025 C 
ATOM      6  C   UNL     1      17.143  14.919   4.862  1.00  0.00     0.091 C 
ATOM      7  C   UNL     1      17.151  14.176   3.514  1.00  0.00     0.050 C 
ATOM      8  C   UNL     1      16.571  12.744   3.579  1.00  0.00     0.084 C 
ATOM      9  C   UNL     1      15.299  12.677   4.458  1.00  0.00     0.050 C 
ENDROOT
BRANCH   1  10
ATOM     10  C   UNL     1      14.892  15.869   5.126  1.00  0.00     0.410 C 
ATOM     11  O   UNL     1      14.465  16.658   5.959  1.00  0.00    -0.224 OA
BRANCH  10  12
ATOM     12  O   UNL     1      14.544  15.892   3.812  1.00  0.00    -0.445 OA
BRANCH  12  13
ATOM     13  C   UNL     1      13.146  15.785   3.523  1.00  0.00     0.262 C 
BRANCH  13  14
ATOM     14  C   UNL     1      12.978  15.096   2.201  1.00  0.00     0.006 C 
ATOM     15  C   UNL     1      13.947  14.430   1.559  1.00  0.00     0.007 C 
ENDBRANCH  13  14
ENDBRANCH  12  13
ENDBRANCH  10  12
ENDBRANCH   1  10
BRANCH   8  16
ATOM     16  N   UNL     1      17.561  11.771   4.068  1.00  0.00    -0.367 N 
ATOM     17  H   UNL     1      17.984  12.071   4.944  1.00  0.00     0.162 HD
BRANCH  16  18
ATOM     18  C   UNL     1      17.108  10.448   4.288  1.00  0.00     0.138 A 
ATOM     19  N   UNL     1      16.007  10.018   3.640  1.00  0.00    -0.213 NA
ATOM     20  C   UNL     1      17.822   9.618   5.177  1.00  0.00     0.043 A 
ATOM     21  C   UNL     1      15.559   8.763   3.855  1.00  0.00     0.136 A 
ATOM     22  C   UNL     1      18.999   9.995   5.860  1.00  0.00     0.016 A 
ATOM     23  C   UNL     1      17.342   8.319   5.396  1.00  0.00     0.078 A 
ATOM     24  C   UNL     1      16.207   7.908   4.728  1.00  0.00     0.076 A 
ATOM     25  C   UNL     1      19.630   9.103   6.720  1.00  0.00     0.026 A 
ATOM     26  N   UNL     1      17.951   7.453   6.230  1.00  0.00    -0.251 NA
ATOM     27  C   UNL     1      19.080   7.840   6.878  1.00  0.00     0.055 A 
BRANCH  21  28
ATOM     28  N   UNL     1      14.413   8.432   3.133  1.00  0.00    -0.323 N 
ATOM     29  H   UNL     1      14.369   7.422   3.079  1.00  0.00     0.170 HD
BRANCH  28  30
ATOM     30  C   UNL     1      13.448   9.173   2.553  1.00  0.00     0.153 A 
ATOM     31  C   UNL     1      12.899  10.307   3.204  1.00  0.00     0.071 A 
ATOM     32  N   UNL     1      12.876   8.994   1.360  1.00  0.00    -0.158 NA
ATOM     33  C   UNL     1      11.954  10.816   2.343  1.00  0.00     0.034 A 
ATOM     34  N   UNL     1      11.987   9.991   1.254  1.00  0.00    -0.281 N 
ATOM     35  C   UNL     1      11.046  11.977   2.435  1.00  0.00     0.066 C 
ATOM     36  H   UNL     1      11.432  10.048   0.407  1.00  0.00     0.190 HD
ENDBRANCH  28  30
ENDBRANCH  21  28
BRANCH  27  37
ATOM     37  C   UNL     1      19.728   6.831   7.809  1.00  0.00     0.140 C 
BRANCH  37  38
ATOM     38  N   UNL     1      20.669   5.911   7.135  1.00  0.00    -0.293 NA
ATOM     39  C   UNL     1      21.372   6.586   6.021  1.00  0.00     0.113 C 
ATOM     40  C   UNL     1      19.960   4.704   6.642  1.00  0.00     0.113 C 
ATOM     41  C   UNL     1      20.772   6.280   4.639  1.00  0.00     0.175 C 
ATOM     42  C   UNL     1      20.706   4.039   5.475  1.00  0.00     0.175 C 
ATOM     43  O   UNL     1      20.796   4.883   4.318  1.00  0.00    -0.379 OA
ENDBRANCH  37  38
ENDBRANCH  27  37
ENDBRANCH  16  18
ENDBRANCH   8  16
TORSDOF 10
ENDMDL
MODEL 4
REMARK minimizedAffinity -8.02987671
REMARK CNNscore 0.889047861
REMARK CNNaffinity 8.09842587
REMARK SMILES C=CCOC(=O)N1[C@@H]2CCC[C@H]1C[C@@H](Nc1nc(Nc3cc(C)[nH]n3)cc3nc(CN4CCOCC4)ccc13)C2
REMARK SMILES IDX 7 1 8 2 9 3 10 4 11 5 12 6 13 7 14 8 40 9 5 10 6 11 4 12
REMARK SMILES IDX 3 13 2 14 1 15 15 16 16 18 17 19 39 20 18 21 38 22 27 23
REMARK SMILES IDX 26 24 37 25 28 26 29 27 19 28 20 30 21 31 25 32 22 33 24 34
REMARK SMILES IDX 23 35 30 37 31 38 32 39 36 40 33 41 35 42 34 43
REMARK H PARENT 15 17 19 29 24 36
ROOT
ATOM      1  N   UNL     1      16.153  15.542   5.407  1.00  0.00    -0.302 N 
ATOM      2  C   UNL     1      17.090  15.424   4.294  1.00  0.00     0.091 C 
ATOM      3  C   UNL     1      16.351  15.102   2.981  1.00  0.00     0.025 C 
ATOM      4  C   UNL     1      14.860  14.833   3.173  1.00  0.00     0.004 C 
ATOM      5  C   UNL     1      14.563  13.948   4.381  1.00  0.00     0.025 C 
ATOM      6  C   UNL     1      15.381  14.324   5.630  1.00  0.00     0.091 C 
ATOM      7  C   UNL     1      16.348  13.213   6.080  1.00  0.00     0.050 C 
ATOM      8  C   UNL     1      17.564  13.019   5.144  1.00  0.00     0.084 C 
ATOM      9  C   UNL     1      18.150  14.371   4.672  1.00  0.00     0.050 C 
ENDROOT
BRANCH   1  10
ATOM     10  C   UNL     1      16.319  16.443   6.448  1.00  0.00     0.410 C 
ATOM     11  O   UNL     1      16.613  16.117   7.592  1.00  0.00    -0.224 OA
BRANCH  10  12
ATOM     12  O   UNL     1      16.125  17.729   6.052  1.00  0.00    -0.445 OA
BRANCH  12  13
ATOM     13  C   UNL     1      16.101  18.716   7.090  1.00  0.00     0.262 C 
BRANCH  13  14
ATOM     14  C   UNL     1      14.779  19.422   7.051  1.00  0.00     0.006 C 
ATOM     15  C   UNL     1      13.613  18.883   7.429  1.00  0.00     0.007 C 
ENDBRANCH  13  14
ENDBRANCH  12  13
ENDBRANCH  10  12
ENDBRANCH   1  10
BRANCH   8  16
ATOM     16  N   UNL     1      17.231  12.190   3.973  1.00  0.00    -0.367 N 
ATOM     17  H   UNL     1      18.034  12.061   3.362  1.00  0.00     0.162 HD
BRANCH  16  18
ATOM     18  C   UNL     1      16.723  10.893   4.227  1.00  0.00     0.138 A 
ATOM     19  N   UNL     1      15.433  10.629   3.943  1.00  0.00    -0.213 NA
ATOM     20  C   UNL     1      17.583   9.915   4.768  1.00  0.00     0.043 A 
ATOM     21  C   UNL     1      14.936   9.399   4.194  1.00  0.00     0.136 A 
ATOM     22  C   UNL     1      18.950  10.116   5.056  1.00  0.00     0.016 A 
ATOM     23  C   UNL     1      17.053   8.644   5.030  1.00  0.00     0.078 A 
ATOM     24  C   UNL     1      15.725   8.404   4.740  1.00  0.00     0.076 A 
ATOM     25  C   UNL     1      19.716   9.086   5.591  1.00  0.00     0.026 A 
ATOM     26  N   UNL     1      17.792   7.644   5.551  1.00  0.00    -0.251 NA
ATOM     27  C   UNL     1      19.105   7.863   5.823  1.00  0.00     0.055 A 
BRANCH  21  28
ATOM     28  N   UNL     1      13.591   9.246   3.863  1.00  0.00    -0.323 N 
ATOM     29  H   UNL     1      13.154   8.715   4.605  1.00  0.00     0.170 HD
BRANCH  28  30
ATOM     30  C   UNL     1      12.852   9.654   2.812  1.00  0.00     0.153 A 
ATOM     31  C   UNL     1      12.284  10.953   2.771  1.00  0.00     0.071 A 
ATOM     32  N   UNL     1      12.540   8.971   1.708  1.00  0.00    -0.158 NA
ATOM     33  C   UNL     1      11.605  11.030   1.577  1.00  0.00     0.034 A 
ATOM     34  N   UNL     1      11.795   9.816   0.982  1.00  0.00    -0.281 N 
ATOM     35  C   UNL     1      10.813  12.109   0.950  1.00  0.00     0.066 C 
ATOM     36  H   UNL     1      11.447   9.496   0.085  1.00  0.00     0.190 HD
ENDBRANCH  28  30
ENDBRANCH  21  28
BRANCH  27  37
ATOM     37  C   UNL     1      19.895   6.708   6.411  1.00  0.00     0.140 C 
BRANCH  37  38
ATOM     38  N   UNL     1      20.197   6.859   7.850  1.00  0.00    -0.293 NA
ATOM     39  C   UNL     1      20.791   5.623   8.406  1.00  0.00     0.113 C 
ATOM     40  C   UNL     1      18.975   7.229   8.606  1.00  0.00     0.113 C 
ATOM     41  C   UNL     1      19.784   4.741   9.161  1.00  0.00     0.175 C 
ATOM     42  C   UNL     1      19.075   6.830  10.086  1.00  0.00     0.175 C 
ATOM     43  O   UNL     1      19.181   5.412  10.276  1.00  0.00    -0.379 OA
ENDBRANCH  37  38
ENDBRANCH  27  37
ENDBRANCH  16  18
ENDBRANCH   8  16
TORSDOF 10
ENDMDL
MODEL 5
REMARK minimizedAffinity -7.53436708
REMARK CNNscore 0.716004968
REMARK CNNaffinity 7.52369928
REMARK SMILES C=CCOC(=O)N1[C@@H]2CCC[C@H]1C[C@@H](Nc1nc(Nc3cc(C)[nH]n3)cc3nc(CN4CCOCC4)ccc13)C2
REMARK SMILES IDX 7 1 8 2 9 3 10 4 11 5 12 6 13 7 14 8 40 9 5 10 6 11 4 12
REMARK SMILES IDX 3 13 2 14 1 15 15 16 16 18 17 19 39 20 18 21 38 22 27 23
REMARK SMILES IDX 26 24 37 25 28 26 29 27 19 28 20 30 21 31 25 32 22 33 24 34
REMARK SMILES IDX 23 35 30 37 31 38 32 39 36 40 33 41 35 42 34 43
REMARK H PARENT 15 17 19 29 24 36
ROOT
ATOM      1  N   UNL     1      16.493  15.709   5.853  1.00  0.00    -0.302 N 
ATOM      2  C   UNL     1      16.392  14.477   6.630  1.00  0.00     0.091 C 
ATOM      3  C   UNL     1      17.789  13.912   6.954  1.00  0.00     0.025 C 
ATOM      4  C   UNL     1      18.925  14.670   6.269  1.00  0.00     0.004 C 
ATOM      5  C   UNL     1      18.625  15.007   4.811  1.00  0.00     0.025 C 
ATOM      6  C   UNL     1      17.192  15.525   4.586  1.00  0.00     0.091 C 
ATOM      7  C   UNL     1      16.344  14.598   3.696  1.00  0.00     0.050 C 
ATOM      8  C   UNL     1      15.931  13.273   4.379  1.00  0.00     0.084 C 
ATOM      9  C   UNL     1      15.501  13.493   5.849  1.00  0.00     0.050 C 
ENDROOT
BRANCH   1  10
ATOM     10  C   UNL     1      15.616  16.774   5.999  1.00  0.00     0.410 C 
ATOM     11  O   UNL     1      14.413  16.700   5.780  1.00  0.00    -0.224 OA
BRANCH  10  12
ATOM     12  O   UNL     1      16.242  17.904   6.420  1.00  0.00    -0.445 OA
BRANCH  12  13
ATOM     13  C   UNL     1      17.663  17.946   6.245  1.00  0.00     0.262 C 
BRANCH  13  14
ATOM     14  C   UNL     1      18.274  18.628   7.433  1.00  0.00     0.006 C 
ATOM     15  C   UNL     1      19.550  19.028   7.511  1.00  0.00     0.007 C 
ENDBRANCH  13  14
ENDBRANCH  12  13
ENDBRANCH  10  12
ENDBRANCH   1  10
BRANCH   8  16
ATOM     16  N   UNL     1      17.005  12.267   4.324  1.00  0.00    -0.367 N 
ATOM     17  H   UNL     1      17.714  12.434   5.035  1.00  0.00     0.162 HD
BRANCH  16  18
ATOM     18  C   UNL     1      16.623  10.911   4.466  1.00  0.00     0.138 A 
ATOM     19  N   UNL     1      15.408  10.525   4.032  1.00  0.00    -0.213 NA
ATOM     20  C   UNL     1      17.527  10.004   5.055  1.00  0.00     0.043 A 
ATOM     21  C   UNL     1      15.029   9.238   4.176  1.00  0.00     0.136 A 
ATOM     22  C   UNL     1      18.826  10.335   5.499  1.00  0.00     0.016 A 
ATOM     23  C   UNL     1      17.120   8.671   5.205  1.00  0.00     0.078 A 
ATOM     24  C   UNL     1      15.865   8.305   4.762  1.00  0.00     0.076 A 
ATOM     25  C   UNL     1      19.643   9.366   6.071  1.00  0.00     0.026 A 
ATOM     26  N   UNL     1      17.909   7.730   5.761  1.00  0.00    -0.251 NA
ATOM     27  C   UNL     1      19.153   8.074   6.183  1.00  0.00     0.055 A 
BRANCH  21  28
ATOM     28  N   UNL     1      13.752   8.958   3.694  1.00  0.00    -0.323 N 
ATOM     29  H   UNL     1      13.403   8.157   4.205  1.00  0.00     0.170 HD
BRANCH  28  30
ATOM     30  C   UNL     1      12.982   9.531   2.747  1.00  0.00     0.153 A 
ATOM     31  C   UNL     1      12.509  10.861   2.888  1.00  0.00     0.071 A 
ATOM     32  N   UNL     1      12.554   9.001   1.599  1.00  0.00    -0.158 NA
ATOM     33  C   UNL     1      11.766  11.118   1.760  1.00  0.00     0.034 A 
ATOM     34  N   UNL     1      11.831   9.970   1.023  1.00  0.00    -0.281 N 
ATOM     35  C   UNL     1      11.018  12.311   1.310  1.00  0.00     0.066 C 
ATOM     36  H   UNL     1      11.406   9.778   0.122  1.00  0.00     0.190 HD
ENDBRANCH  28  30
ENDBRANCH  21  28
BRANCH  27  37
ATOM     37  C   UNL     1      20.004   6.980   6.805  1.00  0.00     0.140 C 
BRANCH  37  38
ATOM     38  N   UNL     1      19.961   6.955   8.282  1.00  0.00    -0.293 NA
ATOM     39  C   UNL     1      18.574   6.798   8.775  1.00  0.00     0.113 C 
ATOM     40  C   UNL     1      20.573   8.183   8.846  1.00  0.00     0.113 C 
ATOM     41  C   UNL     1      17.926   8.119   9.219  1.00  0.00     0.175 C 
ATOM     42  C   UNL     1      20.049   8.488  10.258  1.00  0.00     0.175 C 
ATOM     43  O   UNL     1      18.641   8.762  10.282  1.00  0.00    -0.379 OA
ENDBRANCH  37  38
ENDBRANCH  27  37
ENDBRANCH  16  18
ENDBRANCH   8  16
TORSDOF 10
ENDMDL
MODEL 6
REMARK minimizedAffinity -7.6278429
REMARK CNNscore 0.688845217
REMARK CNNaffinity 7.7864089
REMARK SMILES C=CCOC(=O)N1[C@@H]2CCC[C@H]1C[C@@H](Nc1nc(Nc3cc(C)[nH]n3)cc3nc(CN4CCOCC4)ccc13)C2
REMARK SMILES IDX 7 1 8 2 9 3 10 4 11 5 12 6 13 7 14 8 40 9 5 10 6 11 4 12
REMARK SMILES IDX 3 13 2 14 1 15 15 16 16 18 17 19 39 20 18 21 38 22 27 23
REMARK SMILES IDX 26 24 37 25 28 26 29 27 19 28 20 30 21 31 25 32 22 33 24 34
REMARK SMILES IDX 23 35 30 37 31 38 32 39 36 40 33 41 35 42 34 43
REMARK H PARENT 15 17 19 29 24 36
ROOT
ATOM      1  N   UNL     1      16.834  16.755   6.175  1.00  0.00    -0.302 N 
ATOM      2  C   UNL     1      16.716  15.384   6.663  1.00  0.00     0.091 C 
ATOM      3  C   UNL     1      18.086  14.681   6.672  1.00  0.00     0.025 C 
ATOM      4  C   UNL     1      19.199  15.509   6.035  1.00  0.00     0.004 C 
ATOM      5  C   UNL     1      18.770  16.193   4.740  1.00  0.00     0.025 C 
ATOM      6  C   UNL     1      17.370  16.830   4.820  1.00  0.00     0.091 C 
ATOM      7  C   UNL     1      16.353  16.185   3.861  1.00  0.00     0.050 C 
ATOM      8  C   UNL     1      15.907  14.764   4.277  1.00  0.00     0.084 C 
ATOM      9  C   UNL     1      15.662  14.661   5.802  1.00  0.00     0.050 C 
ENDROOT
BRANCH   1  10
ATOM     10  C   UNL     1      16.072  17.805   6.665  1.00  0.00     0.410 C 
ATOM     11  O   UNL     1      16.538  18.887   7.002  1.00  0.00    -0.224 OA
BRANCH  10  12
ATOM     12  O   UNL     1      14.749  17.500   6.719  1.00  0.00    -0.445 OA
BRANCH  12  13
ATOM     13  C   UNL     1      13.934  18.349   7.536  1.00  0.00     0.262 C 
BRANCH  13  14
ATOM     14  C   UNL     1      12.661  18.646   6.801  1.00  0.00     0.006 C 
ATOM     15  C   UNL     1      11.437  18.307   7.226  1.00  0.00     0.007 C 
ENDBRANCH  13  14
ENDBRANCH  12  13
ENDBRANCH  10  12
ENDBRANCH   1  10
BRANCH   8  16
ATOM     16  N   UNL     1      16.878  13.738   3.863  1.00  0.00    -0.367 N 
ATOM     17  H   UNL     1      17.771  13.850   4.340  1.00  0.00     0.162 HD
BRANCH  16  18
ATOM     18  C   UNL     1      16.505  12.386   4.050  1.00  0.00     0.138 A 
ATOM     19  N   UNL     1      15.228  12.022   3.819  1.00  0.00    -0.213 NA
ATOM     20  C   UNL     1      17.479  11.458   4.472  1.00  0.00     0.043 A 
ATOM     21  C   UNL     1      14.859  10.738   4.008  1.00  0.00     0.136 A 
ATOM     22  C   UNL     1      18.838  11.766   4.700  1.00  0.00     0.016 A 
ATOM     23  C   UNL     1      17.082  10.129   4.672  1.00  0.00     0.078 A 
ATOM     24  C   UNL     1      15.765   9.786   4.438  1.00  0.00     0.076 A 
ATOM     25  C   UNL     1      19.724  10.779   5.118  1.00  0.00     0.026 A 
ATOM     26  N   UNL     1      17.937   9.170   5.079  1.00  0.00    -0.251 NA
ATOM     27  C   UNL     1      19.239   9.491   5.295  1.00  0.00     0.055 A 
BRANCH  21  28
ATOM     28  N   UNL     1      13.515  10.482   3.740  1.00  0.00    -0.323 N 
ATOM     29  H   UNL     1      13.161   9.903   4.491  1.00  0.00     0.170 HD
BRANCH  28  30
ATOM     30  C   UNL     1      12.693  10.849   2.737  1.00  0.00     0.153 A 
ATOM     31  C   UNL     1      12.520  12.213   2.389  1.00  0.00     0.071 A 
ATOM     32  N   UNL     1      11.950  10.067   1.952  1.00  0.00    -0.158 NA
ATOM     33  C   UNL     1      11.627  12.225   1.343  1.00  0.00     0.034 A 
ATOM     34  N   UNL     1      11.322  10.912   1.122  1.00  0.00    -0.281 N 
ATOM     35  C   UNL     1      11.044  13.322   0.543  1.00  0.00     0.066 C 
ATOM     36  H   UNL     1      10.696  10.521   0.427  1.00  0.00     0.190 HD
ENDBRANCH  28  30
ENDBRANCH  21  28
BRANCH  27  37
ATOM     37  C   UNL     1      20.163   8.378   5.755  1.00  0.00     0.140 C 
BRANCH  37  38
ATOM     38  N   UNL     1      20.182   8.183   7.220  1.00  0.00    -0.293 NA
ATOM     39  C   UNL     1      19.517   6.916   7.601  1.00  0.00     0.113 C 
ATOM     40  C   UNL     1      19.542   9.329   7.910  1.00  0.00     0.113 C 
ATOM     41  C   UNL     1      18.071   7.103   8.088  1.00  0.00     0.175 C 
ATOM     42  C   UNL     1      19.013   8.939   9.299  1.00  0.00     0.175 C 
ATOM     43  O   UNL     1      17.976   7.948   9.242  1.00  0.00    -0.379 OA
ENDBRANCH  37  38
ENDBRANCH  27  37
ENDBRANCH  16  18
ENDBRANCH   8  16
TORSDOF 10
ENDMDL
MODEL 7
REMARK minimizedAffinity -7.58377504
REMARK CNNscore 0.592290461
REMARK CNNaffinity 7.38690567
REMARK SMILES C=CCOC(=O)N1[C@@H]2CCC[C@H]1C[C@@H](Nc1nc(Nc3cc(C)[nH]n3)cc3nc(CN4CCOCC4)ccc13)C2
REMARK SMILES IDX 7 1 8 2 9 3 10 4 11 5 12 6 13 7 14 8 40 9 5 10 6 11 4 12
REMARK SMILES IDX 3 13 2 14 1 15 15 16 16 18 17 19 39 20 18 21 38 22 27 23
REMARK SMILES IDX 26 24 37 25 28 26 29 27 19 28 20 30 21 31 25 32 22 33 24 34
REMARK SMILES IDX 23 35 30 37 31 38 32 39 36 40 33 41 35 42 34 43
REMARK H PARENT 15 17 19 29 24 36
ROOT
ATOM      1  N   UNL     1      19.058   6.869   7.762  1.00  0.00    -0.302 N 
ATOM      2  C   UNL     1      17.788   7.360   7.234  1.00  0.00     0.091 C 
ATOM      3  C   UNL     1      17.511   6.781   5.834  1.00  0.00     0.025 C 
ATOM      4  C   UNL     1      18.676   5.971   5.269  1.00  0.00     0.004 C 
ATOM      5  C   UNL     1      20.032   6.633   5.500  1.00  0.00     0.025 C 
ATOM      6  C   UNL     1      20.196   7.215   6.917  1.00  0.00     0.091 C 
ATOM      7  C   UNL     1      20.359   8.746   6.929  1.00  0.00     0.050 C 
ATOM      8  C   UNL     1      19.067   9.521   6.583  1.00  0.00     0.084 C 
ATOM      9  C   UNL     1      17.823   8.900   7.264  1.00  0.00     0.050 C 
ENDROOT
BRANCH   1  10
ATOM     10  C   UNL     1      19.267   6.593   9.105  1.00  0.00     0.410 C 
ATOM     11  O   UNL     1      20.328   6.181   9.559  1.00  0.00    -0.224 OA
BRANCH  10  12
ATOM     12  O   UNL     1      18.164   6.839   9.860  1.00  0.00    -0.445 OA
BRANCH  12  13
ATOM     13  C   UNL     1      18.294   7.851  10.864  1.00  0.00     0.262 C 
BRANCH  13  14
ATOM     14  C   UNL     1      19.398   8.784  10.466  1.00  0.00     0.006 C 
ATOM     15  C   UNL     1      19.688   9.934  11.090  1.00  0.00     0.007 C 
ENDBRANCH  13  14
ENDBRANCH  12  13
ENDBRANCH  10  12
ENDBRANCH   1  10
BRANCH   8  16
ATOM     16  N   UNL     1      18.845   9.603   5.130  1.00  0.00    -0.367 N 
ATOM     17  H   UNL     1      18.747   8.681   4.711  1.00  0.00     0.162 HD
BRANCH  16  18
ATOM     18  C   UNL     1      17.725  10.350   4.692  1.00  0.00     0.138 A 
ATOM     19  N   UNL     1      16.602   9.697   4.336  1.00  0.00    -0.213 NA
ATOM     20  C   UNL     1      17.818  11.757   4.640  1.00  0.00     0.043 A 
ATOM     21  C   UNL     1      15.534  10.399   3.903  1.00  0.00     0.136 A 
ATOM     22  C   UNL     1      18.951  12.504   5.029  1.00  0.00     0.016 A 
ATOM     23  C   UNL     1      16.704  12.474   4.182  1.00  0.00     0.078 A 
ATOM     24  C   UNL     1      15.570  11.778   3.814  1.00  0.00     0.076 A 
ATOM     25  C   UNL     1      18.944  13.891   4.939  1.00  0.00     0.026 A 
ATOM     26  N   UNL     1      16.695  13.819   4.091  1.00  0.00    -0.251 NA
ATOM     27  C   UNL     1      17.799  14.515   4.468  1.00  0.00     0.055 A 
BRANCH  21  28
ATOM     28  N   UNL     1      14.433   9.616   3.562  1.00  0.00    -0.323 N 
ATOM     29  H   UNL     1      14.479   8.769   4.115  1.00  0.00     0.170 HD
BRANCH  28  30
ATOM     30  C   UNL     1      13.415   9.790   2.695  1.00  0.00     0.153 A 
ATOM     31  C   UNL     1      12.696  11.011   2.641  1.00  0.00     0.071 A 
ATOM     32  N   UNL     1      12.933   8.922   1.804  1.00  0.00    -0.158 NA
ATOM     33  C   UNL     1      11.742  10.844   1.664  1.00  0.00     0.034 A 
ATOM     34  N   UNL     1      11.934   9.575   1.195  1.00  0.00    -0.281 N 
ATOM     35  C   UNL     1      10.692  11.738   1.134  1.00  0.00     0.066 C 
ATOM     36  H   UNL     1      11.421   9.092   0.466  1.00  0.00     0.190 HD
ENDBRANCH  28  30
ENDBRANCH  21  28
BRANCH  27  37
ATOM     37  C   UNL     1      17.742  16.028   4.346  1.00  0.00     0.140 C 
BRANCH  37  38
ATOM     38  N   UNL     1      17.666  16.732   5.644  1.00  0.00    -0.293 NA
ATOM     39  C   UNL     1      16.577  16.187   6.485  1.00  0.00     0.113 C 
ATOM     40  C   UNL     1      17.479  18.189   5.439  1.00  0.00     0.113 C 
ATOM     41  C   UNL     1      15.292  17.030   6.452  1.00  0.00     0.175 C 
ATOM     42  C   UNL     1      16.822  18.859   6.655  1.00  0.00     0.175 C 
ATOM     43  O   UNL     1      15.495  18.374   6.909  1.00  0.00    -0.379 OA
ENDBRANCH  37  38
ENDBRANCH  27  37
ENDBRANCH  16  18
ENDBRANCH   8  16
TORSDOF 10
ENDMDL
MODEL 8
REMARK minimizedAffinity -7.67258167
REMARK CNNscore 0.437735498
REMARK CNNaffinity 7.90733767
REMARK SMILES C=CCOC(=O)N1[C@@H]2CCC[C@H]1C[C@@H](Nc1nc(Nc3cc(C)[nH]n3)cc3nc(CN4CCOCC4)ccc13)C2
REMARK SMILES IDX 7 1 8 2 9 3 10 4 11 5 12 6 13 7 14 8 40 9 5 10 6 11 4 12
REMARK SMILES IDX 3 13 2 14 1 15 15 16 16 18 17 19 39 20 18 21 38 22 27 23
REMARK SMILES IDX 26 24 37 25 28 26 29 27 19 28 20 30 21 31 25 32 22 33 24 34
REMARK SMILES IDX 23 35 30 37 31 38 32 39 36 40 33 41 35 42 34 43
REMARK H PARENT 15 17 19 29 24 36
ROOT
ATOM      1  N   UNL     1      16.690  15.775   5.876  1.00  0.00    -0.302 N 
ATOM      2  C   UNL     1      17.550  15.593   4.709  1.00  0.00     0.091 C 
ATOM      3  C   UNL     1      16.731  15.649   3.405  1.00  0.00     0.025 C 
ATOM      4  C   UNL     1      15.223  15.723   3.637  1.00  0.00     0.004 C 
ATOM      5  C   UNL     1      14.738  14.775   4.730  1.00  0.00     0.025 C 
ATOM      6  C   UNL     1      15.646  14.761   5.975  1.00  0.00     0.091 C 
ATOM      7  C   UNL     1      16.317  13.398   6.222  1.00  0.00     0.050 C 
ATOM      8  C   UNL     1      17.430  13.049   5.207  1.00  0.00     0.084 C 
ATOM      9  C   UNL     1      18.323  14.273   4.889  1.00  0.00     0.050 C 
ENDROOT
BRANCH   1  10
ATOM     10  C   UNL     1      17.091  16.453   7.017  1.00  0.00     0.410 C 
ATOM     11  O   UNL     1      16.410  16.544   8.031  1.00  0.00    -0.224 OA
BRANCH  10  12
ATOM     12  O   UNL     1      18.330  16.997   6.885  1.00  0.00    -0.445 OA
BRANCH  12  13
ATOM     13  C   UNL     1      19.271  16.692   7.920  1.00  0.00     0.262 C 
BRANCH  13  14
ATOM     14  C   UNL     1      20.516  16.141   7.291  1.00  0.00     0.006 C 
ATOM     15  C   UNL     1      21.023  16.545   6.118  1.00  0.00     0.007 C 
ENDBRANCH  13  14
ENDBRANCH  12  13
ENDBRANCH  10  12
ENDBRANCH   1  10
BRANCH   8  16
ATOM     16  N   UNL     1      16.882  12.500   3.956  1.00  0.00    -0.367 N 
ATOM     17  H   UNL     1      17.620  12.229   3.308  1.00  0.00     0.162 HD
BRANCH  16  18
ATOM     18  C   UNL     1      16.029  11.375   4.066  1.00  0.00     0.138 A 
ATOM     19  N   UNL     1      14.735  11.500   3.714  1.00  0.00    -0.213 NA
ATOM     20  C   UNL     1      16.560  10.157   4.539  1.00  0.00     0.043 A 
ATOM     21  C   UNL     1      13.910  10.438   3.829  1.00  0.00     0.136 A 
ATOM     22  C   UNL     1      17.911   9.951   4.892  1.00  0.00     0.016 A 
ATOM     23  C   UNL     1      15.692   9.063   4.660  1.00  0.00     0.078 A 
ATOM     24  C   UNL     1      14.368   9.222   4.303  1.00  0.00     0.076 A 
ATOM     25  C   UNL     1      18.337   8.710   5.351  1.00  0.00     0.026 A 
ATOM     26  N   UNL     1      16.101   7.859   5.107  1.00  0.00    -0.251 NA
ATOM     27  C   UNL     1      17.405   7.686   5.443  1.00  0.00     0.055 A 
BRANCH  21  28
ATOM     28  N   UNL     1      12.596  10.687   3.439  1.00  0.00    -0.323 N 
ATOM     29  H   UNL     1      11.991  10.152   4.048  1.00  0.00     0.170 HD
BRANCH  28  30
ATOM     30  C   UNL     1      12.055  11.455   2.471  1.00  0.00     0.153 A 
ATOM     31  C   UNL     1      12.252  12.860   2.451  1.00  0.00     0.071 A 
ATOM     32  N   UNL     1      11.297  11.073   1.442  1.00  0.00    -0.158 NA
ATOM     33  C   UNL     1      11.570  13.320   1.348  1.00  0.00     0.034 A 
ATOM     34  N   UNL     1      11.021  12.205   0.781  1.00  0.00    -0.281 N 
ATOM     35  C   UNL     1      11.389  14.672   0.782  1.00  0.00     0.066 C 
ATOM     36  H   UNL     1      10.448  12.143  -0.054  1.00  0.00     0.190 HD
ENDBRANCH  28  30
ENDBRANCH  21  28
BRANCH  27  37
ATOM     37  C   UNL     1      17.818   6.314   5.944  1.00  0.00     0.140 C 
BRANCH  37  38
ATOM     38  N   UNL     1      18.799   6.349   7.049  1.00  0.00    -0.293 NA
ATOM     39  C   UNL     1      19.400   5.015   7.275  1.00  0.00     0.113 C 
ATOM     40  C   UNL     1      18.167   6.848   8.295  1.00  0.00     0.113 C 
ATOM     41  C   UNL     1      18.769   4.246   8.447  1.00  0.00     0.175 C 
ATOM     42  C   UNL     1      18.913   6.365   9.549  1.00  0.00     0.175 C 
ATOM     43  O   UNL     1      18.889   4.938   9.697  1.00  0.00    -0.379 OA
ENDBRANCH  37  38
ENDBRANCH  27  37
ENDBRANCH  16  18
ENDBRANCH   8  16
TORSDOF 10
ENDMDL
MODEL 9
REMARK minimizedAffinity -8.11627102
REMARK CNNscore 0.405563295
REMARK CNNaffinity 7.95848799
REMARK SMILES C=CCOC(=O)N1[C@@H]2CCC[C@H]1C[C@@H](Nc1nc(Nc3cc(C)[nH]n3)cc3nc(CN4CCOCC4)ccc13)C2
REMARK SMILES IDX 7 1 8 2 9 3 10 4 11 5 12 6 13 7 14 8 40 9 5 10 6 11 4 12
REMARK SMILES IDX 3 13 2 14 1 15 15 16 16 18 17 19 39 20 18 21 38 22 27 23
REMARK SMILES IDX 26 24 37 25 28 26 29 27 19 28 20 30 21 31 25 32 22 33 24 34
REMARK SMILES IDX 23 35 30 37 31 38 32 39 36 40 33 41 35 42 34 43
REMARK H PARENT 15 17 19 29 24 36
ROOT
ATOM      1  N   UNL     1      17.025  16.796   6.069  1.00  0.00    -0.302 N 
ATOM      2  C   UNL     1      16.372  15.605   6.605  1.00  0.00     0.091 C 
ATOM      3  C   UNL     1      17.401  14.498   6.903  1.00  0.00     0.025 C 
ATOM      4  C   UNL     1      18.814  14.838   6.433  1.00  0.00     0.004 C 
ATOM      5  C   UNL     1      18.845  15.471   5.044  1.00  0.00     0.025 C 
ATOM      6  C   UNL     1      17.753  16.536   4.832  1.00  0.00     0.091 C 
ATOM      7  C   UNL     1      16.734  16.153   3.743  1.00  0.00     0.050 C 
ATOM      8  C   UNL     1      15.772  15.014   4.151  1.00  0.00     0.084 C 
ATOM      9  C   UNL     1      15.279  15.172   5.610  1.00  0.00     0.050 C 
ENDROOT
BRANCH   1  10
ATOM     10  C   UNL     1      16.603  18.087   6.352  1.00  0.00     0.410 C 
ATOM     11  O   UNL     1      17.000  19.080   5.755  1.00  0.00    -0.224 OA
BRANCH  10  12
ATOM     12  O   UNL     1      15.692  18.122   7.361  1.00  0.00    -0.445 OA
BRANCH  12  13
ATOM     13  C   UNL     1      14.539  18.943   7.148  1.00  0.00     0.262 C 
BRANCH  13  14
ATOM     14  C   UNL     1      13.345  18.057   6.953  1.00  0.00     0.006 C 
ATOM     15  C   UNL     1      12.122  18.305   7.440  1.00  0.00     0.007 C 
ENDBRANCH  13  14
ENDBRANCH  12  13
ENDBRANCH  10  12
ENDBRANCH   1  10
BRANCH   8  16
ATOM     16  N   UNL     1      16.385  13.686   3.979  1.00  0.00    -0.367 N 
ATOM     17  H   UNL     1      16.931  13.414   4.795  1.00  0.00     0.162 HD
BRANCH  16  18
ATOM     18  C   UNL     1      15.512  12.603   3.718  1.00  0.00     0.138 A 
ATOM     19  N   UNL     1      14.382  12.829   3.019  1.00  0.00    -0.213 NA
ATOM     20  C   UNL     1      15.850  11.320   4.195  1.00  0.00     0.043 A 
ATOM     21  C   UNL     1      13.536  11.806   2.777  1.00  0.00     0.136 A 
ATOM     22  C   UNL     1      17.031  11.010   4.903  1.00  0.00     0.016 A 
ATOM     23  C   UNL     1      14.959  10.267   3.943  1.00  0.00     0.078 A 
ATOM     24  C   UNL     1      13.804  10.529   3.234  1.00  0.00     0.076 A 
ATOM     25  C   UNL     1      17.273   9.711   5.334  1.00  0.00     0.026 A 
ATOM     26  N   UNL     1      15.190   9.007   4.361  1.00  0.00    -0.251 NA
ATOM     27  C   UNL     1      16.332   8.734   5.043  1.00  0.00     0.055 A 
BRANCH  21  28
ATOM     28  N   UNL     1      12.401  12.160   2.049  1.00  0.00    -0.323 N 
ATOM     29  H   UNL     1      11.925  11.305   1.793  1.00  0.00     0.170 HD
BRANCH  28  30
ATOM     30  C   UNL     1      11.889  13.347   1.668  1.00  0.00     0.153 A 
ATOM     31  C   UNL     1      11.520  14.330   2.622  1.00  0.00     0.071 A 
ATOM     32  N   UNL     1      11.649  13.783   0.429  1.00  0.00    -0.158 NA
ATOM     33  C   UNL     1      11.040  15.397   1.898  1.00  0.00     0.034 A 
ATOM     34  N   UNL     1      11.144  15.014   0.591  1.00  0.00    -0.281 N 
ATOM     35  C   UNL     1      10.508  16.715   2.301  1.00  0.00     0.066 C 
ATOM     36  H   UNL     1      10.890  15.539  -0.238  1.00  0.00     0.190 HD
ENDBRANCH  28  30
ENDBRANCH  21  28
BRANCH  27  37
ATOM     37  C   UNL     1      16.546   7.301   5.496  1.00  0.00     0.140 C 
BRANCH  37  38
ATOM     38  N   UNL     1      17.924   7.015   5.949  1.00  0.00    -0.293 NA
ATOM     39  C   UNL     1      18.501   5.865   5.217  1.00  0.00     0.113 C 
ATOM     40  C   UNL     1      17.954   6.764   7.410  1.00  0.00     0.113 C 
ATOM     41  C   UNL     1      18.440   4.544   6.000  1.00  0.00     0.175 C 
ATOM     42  C   UNL     1      19.168   5.915   7.821  1.00  0.00     0.175 C 
ATOM     43  O   UNL     1      19.149   4.601   7.245  1.00  0.00    -0.379 OA
ENDBRANCH  37  38
ENDBRANCH  27  37
ENDBRANCH  16  18
ENDBRANCH   8  16
TORSDOF 10
ENDMDL
