MODEL 1
REMARK VINA RESULT:      -9.1      0.000      0.000
REMARK SMILES C=CCOc1cc(-c2nc3c(C(N)=O)cccc3[nH]2)ccc1OC
REMARK SMILES IDX 5 1 6 2 7 3 20 4 21 5 22 6 4 7 3 8 2 9 1 10 23 11 24 12 8 13
REMARK SMILES IDX 9 14 19 15 10 16 18 17 11 18 17 19 15 20 16 21 12 23 13 24
REMARK SMILES IDX 14 25
REMARK H PARENT 19 22 13 26 13 27
ROOT
ATOM      1  C   UNL     1     -40.399   1.182  -9.460  1.00  0.00     0.162 A 
ATOM      2  C   UNL     1     -40.036   2.538  -9.487  1.00  0.00     0.062 A 
ATOM      3  C   UNL     1     -40.296   3.369  -8.388  1.00  0.00     0.021 A 
ATOM      4  C   UNL     1     -40.924   2.815  -7.265  1.00  0.00     0.016 A 
ATOM      5  C   UNL     1     -41.308   1.472  -7.239  1.00  0.00     0.051 A 
ATOM      6  C   UNL     1     -41.058   0.647  -8.337  1.00  0.00     0.160 A 
ENDROOT
BRANCH   1   7
ATOM      7  O   UNL     1     -40.188   0.329 -10.518  1.00  0.00    -0.486 OA
BRANCH   7   8
ATOM      8  C   UNL     1     -38.830   0.178 -10.932  1.00  0.00     0.257 C 
BRANCH   8   9
ATOM      9  C   UNL     1     -38.149  -0.702  -9.928  1.00  0.00     0.006 C 
ATOM     10  C   UNL     1     -38.251  -2.038  -9.883  1.00  0.00     0.007 C 
ENDBRANCH   8   9
ENDBRANCH   7   8
ENDBRANCH   1   7
BRANCH   6  11
ATOM     11  O   UNL     1     -41.388  -0.683  -8.407  1.00  0.00    -0.493 OA
ATOM     12  C   UNL     1     -40.985  -1.513  -7.328  1.00  0.00     0.278 C 
ENDBRANCH   6  11
BRANCH   3  13
ATOM     13  C   UNL     1     -39.932   4.789  -8.369  1.00  0.00     0.138 A 
ATOM     14  N   UNL     1     -40.608   5.764  -8.949  1.00  0.00    -0.228 NA
ATOM     15  N   UNL     1     -38.811   5.303  -7.762  1.00  0.00    -0.338 N 
ATOM     16  C   UNL     1     -39.912   6.929  -8.723  1.00  0.00     0.102 A 
ATOM     17  C   UNL     1     -38.784   6.663  -7.951  1.00  0.00     0.067 A 
ATOM     18  C   UNL     1     -40.169   8.260  -9.100  1.00  0.00     0.067 A 
ATOM     19  C   UNL     1     -37.885   7.646  -7.528  1.00  0.00     0.028 A 
ATOM     20  C   UNL     1     -39.281   9.272  -8.687  1.00  0.00     0.016 A 
ATOM     21  C   UNL     1     -38.159   8.963  -7.913  1.00  0.00     0.003 A 
ATOM     22  H   UNL     1     -38.106   4.766  -7.280  1.00  0.00     0.168 HD
BRANCH  18  23
ATOM     23  C   UNL     1     -41.341   8.592  -9.933  1.00  0.00     0.250 C 
ATOM     24  N   UNL     1     -42.436   7.784  -9.772  1.00  0.00    -0.366 N 
ATOM     25  O   UNL     1     -41.362   9.534 -10.712  1.00  0.00    -0.269 OA
ATOM     26  H   UNL     1     -43.182   7.927 -10.441  1.00  0.00     0.159 HD
ATOM     27  H   UNL     1     -42.352   6.868  -9.355  1.00  0.00     0.159 HD
ENDBRANCH  18  23
ENDBRANCH   3  13
TORSDOF 6
ENDMDL
MODEL 2
REMARK VINA RESULT:      -8.9      1.471      3.042
REMARK SMILES C=CCOc1cc(-c2nc3c(C(N)=O)cccc3[nH]2)ccc1OC
REMARK SMILES IDX 5 1 6 2 7 3 20 4 21 5 22 6 4 7 3 8 2 9 1 10 23 11 24 12 8 13
REMARK SMILES IDX 9 14 19 15 10 16 18 17 11 18 17 19 15 20 16 21 12 23 13 24
REMARK SMILES IDX 14 25
REMARK H PARENT 19 22 13 26 13 27
ROOT
ATOM      1  C   UNL     1     -41.371   2.105  -7.189  1.00  0.00     0.162 A 
ATOM      2  C   UNL     1     -40.939   3.440  -7.156  1.00  0.00     0.062 A 
ATOM      3  C   UNL     1     -40.340   4.025  -8.281  1.00  0.00     0.021 A 
ATOM      4  C   UNL     1     -40.185   3.247  -9.436  1.00  0.00     0.016 A 
ATOM      5  C   UNL     1     -40.592   1.910  -9.469  1.00  0.00     0.051 A 
ATOM      6  C   UNL     1     -41.180   1.327  -8.345  1.00  0.00     0.160 A 
ENDROOT
BRANCH   1   7
ATOM      7  O   UNL     1     -41.944   1.477  -6.107  1.00  0.00    -0.486 OA
BRANCH   7   8
ATOM      8  C   UNL     1     -43.198   2.005  -5.674  1.00  0.00     0.257 C 
BRANCH   8   9
ATOM      9  C   UNL     1     -44.121   0.846  -5.450  1.00  0.00     0.006 C 
ATOM     10  C   UNL     1     -44.576   0.030  -6.410  1.00  0.00     0.007 C 
ENDBRANCH   8   9
ENDBRANCH   7   8
ENDBRANCH   1   7
BRANCH   6  11
ATOM     11  O   UNL     1     -41.619   0.028  -8.279  1.00  0.00    -0.493 OA
ATOM     12  C   UNL     1     -40.633  -0.993  -8.245  1.00  0.00     0.278 C 
ENDBRANCH   6  11
BRANCH   3  13
ATOM     13  C   UNL     1     -39.877   5.416  -8.295  1.00  0.00     0.138 A 
ATOM     14  N   UNL     1     -40.441   6.407  -8.962  1.00  0.00    -0.228 NA
ATOM     15  N   UNL     1     -38.766   5.880  -7.632  1.00  0.00    -0.338 N 
ATOM     16  C   UNL     1     -39.680   7.531  -8.735  1.00  0.00     0.102 A 
ATOM     17  C   UNL     1     -38.629   7.224  -7.875  1.00  0.00     0.067 A 
ATOM     18  C   UNL     1     -39.815   8.857  -9.185  1.00  0.00     0.067 A 
ATOM     19  C   UNL     1     -37.693   8.162  -7.430  1.00  0.00     0.028 A 
ATOM     20  C   UNL     1     -38.887   9.824  -8.753  1.00  0.00     0.016 A 
ATOM     21  C   UNL     1     -37.846   9.476  -7.888  1.00  0.00     0.003 A 
ATOM     22  H   UNL     1     -38.136   5.319  -7.079  1.00  0.00     0.168 HD
BRANCH  18  23
ATOM     23  C   UNL     1     -40.901   9.230 -10.113  1.00  0.00     0.250 C 
ATOM     24  N   UNL     1     -42.123   8.664  -9.858  1.00  0.00    -0.366 N 
ATOM     25  O   UNL     1     -40.747  10.005 -11.046  1.00  0.00    -0.269 OA
ATOM     26  H   UNL     1     -42.825   8.810 -10.573  1.00  0.00     0.159 HD
ATOM     27  H   UNL     1     -42.207   7.838  -9.282  1.00  0.00     0.159 HD
ENDBRANCH  18  23
ENDBRANCH   3  13
TORSDOF 6
ENDMDL
MODEL 3
REMARK VINA RESULT:      -8.8      2.957      3.946
REMARK SMILES C=CCOc1cc(-c2nc3c(C(N)=O)cccc3[nH]2)ccc1OC
REMARK SMILES IDX 5 1 6 2 7 3 20 4 21 5 22 6 4 7 3 8 2 9 1 10 23 11 24 12 8 13
REMARK SMILES IDX 9 14 19 15 10 16 18 17 11 18 17 19 15 20 16 21 12 23 13 24
REMARK SMILES IDX 14 25
REMARK H PARENT 19 22 13 26 13 27
ROOT
ATOM      1  C   UNL     1     -37.336   3.487  -6.938  1.00  0.00     0.162 A 
ATOM      2  C   UNL     1     -37.955   4.542  -7.625  1.00  0.00     0.062 A 
ATOM      3  C   UNL     1     -37.929   5.845  -7.107  1.00  0.00     0.021 A 
ATOM      4  C   UNL     1     -37.271   6.067  -5.890  1.00  0.00     0.016 A 
ATOM      5  C   UNL     1     -36.671   5.017  -5.189  1.00  0.00     0.051 A 
ATOM      6  C   UNL     1     -36.706   3.719  -5.701  1.00  0.00     0.160 A 
ENDROOT
BRANCH   1   7
ATOM      7  O   UNL     1     -37.350   2.188  -7.390  1.00  0.00    -0.486 OA
BRANCH   7   8
ATOM      8  C   UNL     1     -38.639   1.586  -7.510  1.00  0.00     0.257 C 
BRANCH   8   9
ATOM      9  C   UNL     1     -38.818   1.188  -8.945  1.00  0.00     0.006 C 
ATOM     10  C   UNL     1     -37.971   1.493  -9.937  1.00  0.00     0.007 C 
ENDBRANCH   8   9
ENDBRANCH   7   8
ENDBRANCH   1   7
BRANCH   6  11
ATOM     11  O   UNL     1     -36.142   2.625  -5.094  1.00  0.00    -0.493 OA
ATOM     12  C   UNL     1     -34.772   2.714  -4.732  1.00  0.00     0.278 C 
ENDBRANCH   6  11
BRANCH   3  13
ATOM     13  C   UNL     1     -38.558   6.979  -7.791  1.00  0.00     0.138 A 
ATOM     14  N   UNL     1     -39.654   6.922  -8.526  1.00  0.00    -0.228 NA
ATOM     15  N   UNL     1     -38.073   8.265  -7.785  1.00  0.00    -0.338 N 
ATOM     16  C   UNL     1     -39.881   8.189  -9.011  1.00  0.00     0.102 A 
ATOM     17  C   UNL     1     -38.906   9.060  -8.533  1.00  0.00     0.067 A 
ATOM     18  C   UNL     1     -40.899   8.707  -9.834  1.00  0.00     0.067 A 
ATOM     19  C   UNL     1     -38.877  10.427  -8.825  1.00  0.00     0.028 A 
ATOM     20  C   UNL     1     -40.896  10.080 -10.144  1.00  0.00     0.016 A 
ATOM     21  C   UNL     1     -39.899  10.921  -9.644  1.00  0.00     0.003 A 
ATOM     22  H   UNL     1     -37.228   8.572  -7.328  1.00  0.00     0.168 HD
BRANCH  18  23
ATOM     23  C   UNL     1     -41.945   7.822 -10.381  1.00  0.00     0.250 C 
ATOM     24  N   UNL     1     -43.235   8.149 -10.053  1.00  0.00    -0.366 N 
ATOM     25  O   UNL     1     -41.702   6.862 -11.098  1.00  0.00    -0.269 OA
ATOM     26  H   UNL     1     -43.935   7.464 -10.311  1.00  0.00     0.159 HD
ATOM     27  H   UNL     1     -43.438   8.749  -9.266  1.00  0.00     0.159 HD
ENDBRANCH  18  23
ENDBRANCH   3  13
TORSDOF 6
ENDMDL
MODEL 4
REMARK VINA RESULT:      -8.4      3.748      4.591
REMARK SMILES C=CCOc1cc(-c2nc3c(C(N)=O)cccc3[nH]2)ccc1OC
REMARK SMILES IDX 5 1 6 2 7 3 20 4 21 5 22 6 4 7 3 8 2 9 1 10 23 11 24 12 8 13
REMARK SMILES IDX 9 14 19 15 10 16 18 17 11 18 17 19 15 20 16 21 12 23 13 24
REMARK SMILES IDX 14 25
REMARK H PARENT 19 22 13 26 13 27
ROOT
ATOM      1  C   UNL     1     -36.656   4.032  -5.564  1.00  0.00     0.162 A 
ATOM      2  C   UNL     1     -37.109   5.227  -6.145  1.00  0.00     0.062 A 
ATOM      3  C   UNL     1     -38.179   5.219  -7.051  1.00  0.00     0.021 A 
ATOM      4  C   UNL     1     -38.784   3.993  -7.360  1.00  0.00     0.016 A 
ATOM      5  C   UNL     1     -38.324   2.797  -6.802  1.00  0.00     0.051 A 
ATOM      6  C   UNL     1     -37.253   2.805  -5.908  1.00  0.00     0.160 A 
ENDROOT
BRANCH   1   7
ATOM      7  O   UNL     1     -35.597   3.981  -4.687  1.00  0.00    -0.486 OA
BRANCH   7   8
ATOM      8  C   UNL     1     -34.317   4.291  -5.239  1.00  0.00     0.257 C 
BRANCH   8   9
ATOM      9  C   UNL     1     -33.426   3.109  -5.000  1.00  0.00     0.006 C 
ATOM     10  C   UNL     1     -32.246   2.903  -5.601  1.00  0.00     0.007 C 
ENDBRANCH   8   9
ENDBRANCH   7   8
ENDBRANCH   1   7
BRANCH   6  11
ATOM     11  O   UNL     1     -36.733   1.689  -5.302  1.00  0.00    -0.493 OA
ATOM     12  C   UNL     1     -36.092   0.733  -6.135  1.00  0.00     0.278 C 
ENDBRANCH   6  11
BRANCH   3  13
ATOM     13  C   UNL     1     -38.690   6.441  -7.680  1.00  0.00     0.138 A 
ATOM     14  N   UNL     1     -39.777   6.526  -8.424  1.00  0.00    -0.228 NA
ATOM     15  N   UNL     1     -38.086   7.674  -7.603  1.00  0.00    -0.338 N 
ATOM     16  C   UNL     1     -39.878   7.832  -8.845  1.00  0.00     0.102 A 
ATOM     17  C   UNL     1     -38.831   8.581  -8.315  1.00  0.00     0.067 A 
ATOM     18  C   UNL     1     -40.833   8.485  -9.647  1.00  0.00     0.067 A 
ATOM     19  C   UNL     1     -38.670   9.952  -8.535  1.00  0.00     0.028 A 
ATOM     20  C   UNL     1     -40.696   9.866  -9.885  1.00  0.00     0.016 A 
ATOM     21  C   UNL     1     -39.631  10.582  -9.335  1.00  0.00     0.003 A 
ATOM     22  H   UNL     1     -37.221   7.875  -7.125  1.00  0.00     0.168 HD
BRANCH  18  23
ATOM     23  C   UNL     1     -41.951   7.732 -10.247  1.00  0.00     0.250 C 
ATOM     24  N   UNL     1     -41.673   6.441 -10.613  1.00  0.00    -0.366 N 
ATOM     25  O   UNL     1     -43.068   8.205 -10.402  1.00  0.00    -0.269 OA
ATOM     26  H   UNL     1     -42.396   5.978 -11.149  1.00  0.00     0.159 HD
ATOM     27  H   UNL     1     -40.721   6.129 -10.745  1.00  0.00     0.159 HD
ENDBRANCH  18  23
ENDBRANCH   3  13
TORSDOF 6
ENDMDL
MODEL 5
REMARK VINA RESULT:      -8.4      1.672      2.911
REMARK SMILES C=CCOc1cc(-c2nc3c(C(N)=O)cccc3[nH]2)ccc1OC
REMARK SMILES IDX 5 1 6 2 7 3 20 4 21 5 22 6 4 7 3 8 2 9 1 10 23 11 24 12 8 13
REMARK SMILES IDX 9 14 19 15 10 16 18 17 11 18 17 19 15 20 16 21 12 23 13 24
REMARK SMILES IDX 14 25
REMARK H PARENT 19 22 13 26 13 27
ROOT
ATOM      1  C   UNL     1     -40.539   0.850  -7.367  1.00  0.00     0.162 A 
ATOM      2  C   UNL     1     -40.492   2.252  -7.398  1.00  0.00     0.062 A 
ATOM      3  C   UNL     1     -39.993   2.925  -8.523  1.00  0.00     0.021 A 
ATOM      4  C   UNL     1     -39.545   2.165  -9.612  1.00  0.00     0.016 A 
ATOM      5  C   UNL     1     -39.568   0.768  -9.579  1.00  0.00     0.051 A 
ATOM      6  C   UNL     1     -40.056   0.100  -8.456  1.00  0.00     0.160 A 
ENDROOT
BRANCH   1   7
ATOM      7  O   UNL     1     -40.998   0.140  -6.282  1.00  0.00    -0.486 OA
BRANCH   7   8
ATOM      8  C   UNL     1     -40.082   0.004  -5.195  1.00  0.00     0.257 C 
BRANCH   8   9
ATOM      9  C   UNL     1     -40.733  -0.869  -4.165  1.00  0.00     0.006 C 
ATOM     10  C   UNL     1     -40.833  -0.574  -2.862  1.00  0.00     0.007 C 
ENDBRANCH   8   9
ENDBRANCH   7   8
ENDBRANCH   1   7
BRANCH   6  11
ATOM     11  O   UNL     1     -40.128  -1.265  -8.329  1.00  0.00    -0.493 OA
ATOM     12  C   UNL     1     -39.024  -2.023  -8.800  1.00  0.00     0.278 C 
ENDBRANCH   6  11
BRANCH   3  13
ATOM     13  C   UNL     1     -39.928   4.387  -8.603  1.00  0.00     0.138 A 
ATOM     14  N   UNL     1     -40.777   5.160  -9.256  1.00  0.00    -0.228 NA
ATOM     15  N   UNL     1     -38.949   5.162  -8.027  1.00  0.00    -0.338 N 
ATOM     16  C   UNL     1     -40.339   6.456  -9.109  1.00  0.00     0.102 A 
ATOM     17  C   UNL     1     -39.197   6.481  -8.313  1.00  0.00     0.067 A 
ATOM     18  C   UNL     1     -40.856   7.677  -9.583  1.00  0.00     0.067 A 
ATOM     19  C   UNL     1     -38.528   7.655  -7.955  1.00  0.00     0.028 A 
ATOM     20  C   UNL     1     -40.203   8.875  -9.237  1.00  0.00     0.016 A 
ATOM     21  C   UNL     1     -39.059   8.858  -8.435  1.00  0.00     0.003 A 
ATOM     22  H   UNL     1     -38.160   4.816  -7.503  1.00  0.00     0.168 HD
BRANCH  18  23
ATOM     23  C   UNL     1     -42.053   7.702 -10.445  1.00  0.00     0.250 C 
ATOM     24  N   UNL     1     -42.998   8.643 -10.126  1.00  0.00    -0.366 N 
ATOM     25  O   UNL     1     -42.206   6.952 -11.398  1.00  0.00    -0.269 OA
ATOM     26  H   UNL     1     -43.873   8.564 -10.629  1.00  0.00     0.159 HD
ATOM     27  H   UNL     1     -43.020   9.071  -9.212  1.00  0.00     0.159 HD
ENDBRANCH  18  23
ENDBRANCH   3  13
TORSDOF 6
ENDMDL
MODEL 6
REMARK VINA RESULT:      -8.3      2.207      7.637
REMARK SMILES C=CCOc1cc(-c2nc3c(C(N)=O)cccc3[nH]2)ccc1OC
REMARK SMILES IDX 5 1 6 2 7 3 20 4 21 5 22 6 4 7 3 8 2 9 1 10 23 11 24 12 8 13
REMARK SMILES IDX 9 14 19 15 10 16 18 17 11 18 17 19 15 20 16 21 12 23 13 24
REMARK SMILES IDX 14 25
REMARK H PARENT 19 22 13 26 13 27
ROOT
ATOM      1  C   UNL     1     -38.545   7.435  -7.996  1.00  0.00     0.162 A 
ATOM      2  C   UNL     1     -38.734   6.052  -7.854  1.00  0.00     0.062 A 
ATOM      3  C   UNL     1     -39.853   5.422  -8.419  1.00  0.00     0.021 A 
ATOM      4  C   UNL     1     -40.774   6.205  -9.128  1.00  0.00     0.016 A 
ATOM      5  C   UNL     1     -40.604   7.587  -9.255  1.00  0.00     0.051 A 
ATOM      6  C   UNL     1     -39.495   8.214  -8.684  1.00  0.00     0.160 A 
ENDROOT
BRANCH   1   7
ATOM      7  O   UNL     1     -37.478   8.106  -7.444  1.00  0.00    -0.486 OA
BRANCH   7   8
ATOM      8  C   UNL     1     -36.372   7.295  -7.048  1.00  0.00     0.257 C 
BRANCH   8   9
ATOM      9  C   UNL     1     -36.174   7.492  -5.575  1.00  0.00     0.006 C 
ATOM     10  C   UNL     1     -36.474   6.589  -4.633  1.00  0.00     0.007 C 
ENDBRANCH   8   9
ENDBRANCH   7   8
ENDBRANCH   1   7
BRANCH   6  11
ATOM     11  O   UNL     1     -39.234   9.559  -8.758  1.00  0.00    -0.493 OA
ATOM     12  C   UNL     1     -39.736  10.260  -9.887  1.00  0.00     0.278 C 
ENDBRANCH   6  11
BRANCH   3  13
ATOM     13  C   UNL     1     -40.090   3.980  -8.301  1.00  0.00     0.138 A 
ATOM     14  N   UNL     1     -39.744   3.069  -9.191  1.00  0.00    -0.228 NA
ATOM     15  N   UNL     1     -40.737   3.376  -7.249  1.00  0.00    -0.338 N 
ATOM     16  C   UNL     1     -40.179   1.853  -8.715  1.00  0.00     0.102 A 
ATOM     17  C   UNL     1     -40.788   2.022  -7.475  1.00  0.00     0.067 A 
ATOM     18  C   UNL     1     -40.078   0.552  -9.243  1.00  0.00     0.067 A 
ATOM     19  C   UNL     1     -41.309   0.969  -6.718  1.00  0.00     0.028 A 
ATOM     20  C   UNL     1     -40.594  -0.528  -8.502  1.00  0.00     0.016 A 
ATOM     21  C   UNL     1     -41.198  -0.317  -7.260  1.00  0.00     0.003 A 
ATOM     22  H   UNL     1     -41.135   3.851  -6.454  1.00  0.00     0.168 HD
BRANCH  18  23
ATOM     23  C   UNL     1     -39.458   0.322 -10.562  1.00  0.00     0.250 C 
ATOM     24  N   UNL     1     -38.183   0.801 -10.714  1.00  0.00    -0.366 N 
ATOM     25  O   UNL     1     -40.021  -0.270 -11.471  1.00  0.00    -0.269 OA
ATOM     26  H   UNL     1     -37.817   0.766 -11.657  1.00  0.00     0.159 HD
ATOM     27  H   UNL     1     -37.814   1.509 -10.095  1.00  0.00     0.159 HD
ENDBRANCH  18  23
ENDBRANCH   3  13
TORSDOF 6
ENDMDL
MODEL 7
REMARK VINA RESULT:      -8.2      2.072      2.932
REMARK SMILES C=CCOc1cc(-c2nc3c(C(N)=O)cccc3[nH]2)ccc1OC
REMARK SMILES IDX 5 1 6 2 7 3 20 4 21 5 22 6 4 7 3 8 2 9 1 10 23 11 24 12 8 13
REMARK SMILES IDX 9 14 19 15 10 16 18 17 11 18 17 19 15 20 16 21 12 23 13 24
REMARK SMILES IDX 14 25
REMARK H PARENT 19 22 13 26 13 27
ROOT
ATOM      1  C   UNL     1     -40.716   2.639  -8.801  1.00  0.00     0.162 A 
ATOM      2  C   UNL     1     -40.496   3.981  -9.144  1.00  0.00     0.062 A 
ATOM      3  C   UNL     1     -40.458   4.975  -8.155  1.00  0.00     0.021 A 
ATOM      4  C   UNL     1     -40.645   4.595  -6.819  1.00  0.00     0.016 A 
ATOM      5  C   UNL     1     -40.887   3.263  -6.472  1.00  0.00     0.051 A 
ATOM      6  C   UNL     1     -40.933   2.277  -7.458  1.00  0.00     0.160 A 
ENDROOT
BRANCH   1   7
ATOM      7  O   UNL     1     -40.784   1.629  -9.733  1.00  0.00    -0.486 OA
BRANCH   7   8
ATOM      8  C   UNL     1     -39.679   1.537 -10.632  1.00  0.00     0.257 C 
BRANCH   8   9
ATOM      9  C   UNL     1     -38.917   0.295 -10.282  1.00  0.00     0.006 C 
ATOM     10  C   UNL     1     -38.432  -0.584 -11.170  1.00  0.00     0.007 C 
ENDBRANCH   8   9
ENDBRANCH   7   8
ENDBRANCH   1   7
BRANCH   6  11
ATOM     11  O   UNL     1     -41.156   0.944  -7.220  1.00  0.00    -0.493 OA
ATOM     12  C   UNL     1     -40.124   0.214  -6.574  1.00  0.00     0.278 C 
ENDBRANCH   6  11
BRANCH   3  13
ATOM     13  C   UNL     1     -40.227   6.389  -8.465  1.00  0.00     0.138 A 
ATOM     14  N   UNL     1     -39.142   7.076  -8.156  1.00  0.00    -0.228 NA
ATOM     15  N   UNL     1     -41.127   7.210  -9.101  1.00  0.00    -0.338 N 
ATOM     16  C   UNL     1     -39.343   8.366  -8.592  1.00  0.00     0.102 A 
ATOM     17  C   UNL     1     -40.584   8.466  -9.215  1.00  0.00     0.067 A 
ATOM     18  C   UNL     1     -38.525   9.510  -8.534  1.00  0.00     0.067 A 
ATOM     19  C   UNL     1     -41.069   9.644  -9.790  1.00  0.00     0.028 A 
ATOM     20  C   UNL     1     -38.988  10.711  -9.105  1.00  0.00     0.016 A 
ATOM     21  C   UNL     1     -40.240  10.770  -9.723  1.00  0.00     0.003 A 
ATOM     22  H   UNL     1     -42.049   6.942  -9.409  1.00  0.00     0.168 HD
BRANCH  18  23
ATOM     23  C   UNL     1     -37.210   9.461  -7.867  1.00  0.00     0.250 C 
ATOM     24  N   UNL     1     -36.260  10.318  -8.358  1.00  0.00    -0.366 N 
ATOM     25  O   UNL     1     -36.965   8.722  -6.924  1.00  0.00    -0.269 OA
ATOM     26  H   UNL     1     -35.325  10.183  -7.994  1.00  0.00     0.159 HD
ATOM     27  H   UNL     1     -36.348  10.724  -9.279  1.00  0.00     0.159 HD
ENDBRANCH  18  23
ENDBRANCH   3  13
TORSDOF 6
ENDMDL
MODEL 8
REMARK VINA RESULT:      -8.0      2.433      7.824
REMARK SMILES C=CCOc1cc(-c2nc3c(C(N)=O)cccc3[nH]2)ccc1OC
REMARK SMILES IDX 5 1 6 2 7 3 20 4 21 5 22 6 4 7 3 8 2 9 1 10 23 11 24 12 8 13
REMARK SMILES IDX 9 14 19 15 10 16 18 17 11 18 17 19 15 20 16 21 12 23 13 24
REMARK SMILES IDX 14 25
REMARK H PARENT 19 22 13 26 13 27
ROOT
ATOM      1  C   UNL     1     -37.932   8.167  -7.682  1.00  0.00     0.162 A 
ATOM      2  C   UNL     1     -38.876   7.132  -7.594  1.00  0.00     0.062 A 
ATOM      3  C   UNL     1     -38.717   6.098  -6.659  1.00  0.00     0.021 A 
ATOM      4  C   UNL     1     -37.596   6.124  -5.818  1.00  0.00     0.016 A 
ATOM      5  C   UNL     1     -36.641   7.140  -5.915  1.00  0.00     0.051 A 
ATOM      6  C   UNL     1     -36.796   8.163  -6.852  1.00  0.00     0.160 A 
ENDROOT
BRANCH   1   7
ATOM      7  O   UNL     1     -38.028   9.193  -8.594  1.00  0.00    -0.486 OA
BRANCH   7   8
ATOM      8  C   UNL     1     -38.933  10.243  -8.255  1.00  0.00     0.257 C 
BRANCH   8   9
ATOM      9  C   UNL     1     -39.872  10.419  -9.410  1.00  0.00     0.006 C 
ATOM     10  C   UNL     1     -40.656   9.457  -9.915  1.00  0.00     0.007 C 
ENDBRANCH   8   9
ENDBRANCH   7   8
ENDBRANCH   1   7
BRANCH   6  11
ATOM     11  O   UNL     1     -35.920   9.206  -7.020  1.00  0.00    -0.493 OA
ATOM     12  C   UNL     1     -34.936   9.401  -6.015  1.00  0.00     0.278 C 
ENDBRANCH   6  11
BRANCH   3  13
ATOM     13  C   UNL     1     -39.678   4.999  -6.528  1.00  0.00     0.138 A 
ATOM     14  N   UNL     1     -39.865   4.032  -7.406  1.00  0.00    -0.228 NA
ATOM     15  N   UNL     1     -40.545   4.838  -5.473  1.00  0.00    -0.338 N 
ATOM     16  C   UNL     1     -40.874   3.233  -6.920  1.00  0.00     0.102 A 
ATOM     17  C   UNL     1     -41.302   3.712  -5.685  1.00  0.00     0.067 A 
ATOM     18  C   UNL     1     -41.474   2.068  -7.434  1.00  0.00     0.067 A 
ATOM     19  C   UNL     1     -42.299   3.101  -4.920  1.00  0.00     0.028 A 
ATOM     20  C   UNL     1     -42.482   1.430  -6.684  1.00  0.00     0.016 A 
ATOM     21  C   UNL     1     -42.882   1.943  -5.448  1.00  0.00     0.003 A 
ATOM     22  H   UNL     1     -40.633   5.461  -4.685  1.00  0.00     0.168 HD
BRANCH  18  23
ATOM     23  C   UNL     1     -41.070   1.531  -8.747  1.00  0.00     0.250 C 
ATOM     24  N   UNL     1     -41.281   2.357  -9.820  1.00  0.00    -0.366 N 
ATOM     25  O   UNL     1     -40.561   0.428  -8.891  1.00  0.00    -0.269 OA
ATOM     26  H   UNL     1     -41.134   1.933 -10.728  1.00  0.00     0.159 HD
ATOM     27  H   UNL     1     -41.929   3.130  -9.765  1.00  0.00     0.159 HD
ENDBRANCH  18  23
ENDBRANCH   3  13
TORSDOF 6
ENDMDL
MODEL 9
REMARK VINA RESULT:      -7.9      2.090      3.800
REMARK SMILES C=CCOc1cc(-c2nc3c(C(N)=O)cccc3[nH]2)ccc1OC
REMARK SMILES IDX 5 1 6 2 7 3 20 4 21 5 22 6 4 7 3 8 2 9 1 10 23 11 24 12 8 13
REMARK SMILES IDX 9 14 19 15 10 16 18 17 11 18 17 19 15 20 16 21 12 23 13 24
REMARK SMILES IDX 14 25
REMARK H PARENT 19 22 13 26 13 27
ROOT
ATOM      1  C   UNL     1     -41.208   1.759  -7.263  1.00  0.00     0.162 A 
ATOM      2  C   UNL     1     -40.958   3.140  -7.300  1.00  0.00     0.062 A 
ATOM      3  C   UNL     1     -40.391   3.734  -8.437  1.00  0.00     0.021 A 
ATOM      4  C   UNL     1     -40.081   2.917  -9.533  1.00  0.00     0.016 A 
ATOM      5  C   UNL     1     -40.306   1.539  -9.495  1.00  0.00     0.051 A 
ATOM      6  C   UNL     1     -40.862   0.947  -8.360  1.00  0.00     0.160 A 
ENDROOT
BRANCH   1   7
ATOM      7  O   UNL     1     -41.741   1.124  -6.166  1.00  0.00    -0.486 OA
BRANCH   7   8
ATOM      8  C   UNL     1     -43.014   1.601  -5.730  1.00  0.00     0.257 C 
BRANCH   8   9
ATOM      9  C   UNL     1     -44.063   0.813  -6.455  1.00  0.00     0.006 C 
ATOM     10  C   UNL     1     -44.189  -0.520  -6.411  1.00  0.00     0.007 C 
ENDBRANCH   8   9
ENDBRANCH   7   8
ENDBRANCH   1   7
BRANCH   6  11
ATOM     11  O   UNL     1     -41.128  -0.392  -8.227  1.00  0.00    -0.493 OA
ATOM     12  C   UNL     1     -40.020  -1.264  -8.060  1.00  0.00     0.278 C 
ENDBRANCH   6  11
BRANCH   3  13
ATOM     13  C   UNL     1     -40.116   5.171  -8.523  1.00  0.00     0.138 A 
ATOM     14  N   UNL     1     -39.074   5.787  -7.995  1.00  0.00    -0.228 NA
ATOM     15  N   UNL     1     -40.928   6.089  -9.147  1.00  0.00    -0.338 N 
ATOM     16  C   UNL     1     -39.214   7.128  -8.274  1.00  0.00     0.102 A 
ATOM     17  C   UNL     1     -40.368   7.337  -9.024  1.00  0.00     0.067 A 
ATOM     18  C   UNL     1     -38.404   8.236  -7.963  1.00  0.00     0.067 A 
ATOM     19  C   UNL     1     -40.773   8.591  -9.489  1.00  0.00     0.028 A 
ATOM     20  C   UNL     1     -38.788   9.512  -8.420  1.00  0.00     0.016 A 
ATOM     21  C   UNL     1     -39.954   9.680  -9.171  1.00  0.00     0.003 A 
ATOM     22  H   UNL     1     -41.806   5.884  -9.598  1.00  0.00     0.168 HD
BRANCH  18  23
ATOM     23  C   UNL     1     -37.181   8.071  -7.155  1.00  0.00     0.250 C 
ATOM     24  N   UNL     1     -36.101   8.818  -7.548  1.00  0.00    -0.366 N 
ATOM     25  O   UNL     1     -37.116   7.333  -6.183  1.00  0.00    -0.269 OA
ATOM     26  H   UNL     1     -35.230   8.598  -7.081  1.00  0.00     0.159 HD
ATOM     27  H   UNL     1     -36.047   9.210  -8.477  1.00  0.00     0.159 HD
ENDBRANCH  18  23
ENDBRANCH   3  13
TORSDOF 6
ENDMDL
