MODEL 1
REMARK VINA RESULT:     -10.3      0.000      0.000
REMARK SMILES CC(=O)CCCC(=O)Nc1cc(Cc2n[nH]c(=O)c3c2CCCC3)ccc1F
REMARK SMILES IDX 7 1 8 2 9 3 6 5 5 6 4 7 2 8 3 9 1 10 10 11 11 12 27 13 12 14
REMARK SMILES IDX 26 15 25 16 28 17 13 18 14 19 15 20 20 21 16 22 19 23 21 24
REMARK SMILES IDX 17 25 24 26 22 27 18 28 23 29
REMARK H PARENT 9 4 16 30
ROOT
ATOM      1  C   UNL     1     -42.041   0.524  -7.615  1.00  0.00     0.224 C 
ATOM      2  O   UNL     1     -42.769   1.249  -8.281  1.00  0.00    -0.275 OA
ATOM      3  N   UNL     1     -41.030   0.937  -6.767  1.00  0.00    -0.324 N 
ATOM      4  H   UNL     1     -40.511   0.219  -6.271  1.00  0.00     0.170 HD
ENDROOT
BRANCH   1   5
ATOM      5  C   UNL     1     -42.170  -0.992  -7.626  1.00  0.00     0.101 C 
BRANCH   5   6
ATOM      6  C   UNL     1     -43.331  -1.495  -6.770  1.00  0.00     0.018 C 
BRANCH   6   7
ATOM      7  C   UNL     1     -42.851  -1.920  -5.383  1.00  0.00     0.076 C 
BRANCH   7   8
ATOM      8  C   UNL     1     -43.783  -1.468  -4.273  1.00  0.00     0.129 C 
ATOM      9  O   UNL     1     -44.811  -0.827  -4.481  1.00  0.00    -0.300 OA
ATOM     10  C   UNL     1     -43.386  -1.863  -2.873  1.00  0.00     0.087 C 
ENDBRANCH   7   8
ENDBRANCH   6   7
ENDBRANCH   5   6
ENDBRANCH   1   5
BRANCH   3  11
ATOM     11  C   UNL     1     -40.612   2.258  -6.496  1.00  0.00     0.077 A 
ATOM     12  C   UNL     1     -40.020   3.112  -7.429  1.00  0.00     0.033 A 
ATOM     13  C   UNL     1     -40.808   2.729  -5.193  1.00  0.00     0.146 A 
ATOM     14  C   UNL     1     -39.644   4.422  -7.070  1.00  0.00    -0.040 A 
ATOM     15  C   UNL     1     -40.426   4.010  -4.812  1.00  0.00     0.042 A 
ATOM     16  C   UNL     1     -39.839   4.856  -5.751  1.00  0.00     0.007 A 
ATOM     17  F   UNL     1     -41.374   1.924  -4.279  1.00  0.00    -0.205 F 
BRANCH  14  18
ATOM     18  C   UNL     1     -38.986   5.342  -8.077  1.00  0.00     0.094 C 
BRANCH  18  19
ATOM     19  C   UNL     1     -39.930   6.362  -8.708  1.00  0.00     0.069 A 
ATOM     20  N   UNL     1     -40.983   5.883  -9.300  1.00  0.00    -0.177 NA
ATOM     21  C   UNL     1     -39.614   7.823  -8.622  1.00  0.00    -0.016 A 
ATOM     22  N   UNL     1     -41.848   6.773  -9.854  1.00  0.00    -0.243 N 
ATOM     23  C   UNL     1     -40.508   8.666  -9.166  1.00  0.00     0.024 A 
ATOM     24  C   UNL     1     -38.349   8.306  -7.970  1.00  0.00     0.038 C 
ATOM     25  C   UNL     1     -41.723   8.136  -9.836  1.00  0.00     0.267 A 
ATOM     26  C   UNL     1     -40.361  10.162  -9.141  1.00  0.00     0.042 C 
ATOM     27  C   UNL     1     -38.024   9.769  -8.293  1.00  0.00     0.005 C 
ATOM     28  O   UNL     1     -42.552   8.878 -10.352  1.00  0.00    -0.268 OA
ATOM     29  C   UNL     1     -39.268  10.642  -8.184  1.00  0.00     0.005 C 
ATOM     30  H   UNL     1     -42.682   6.389 -10.287  1.00  0.00     0.194 HD
ENDBRANCH  18  19
ENDBRANCH  14  18
ENDBRANCH   3  11
TORSDOF 7
ENDMDL
MODEL 2
REMARK VINA RESULT:     -10.3      1.459      2.290
REMARK SMILES CC(=O)CCCC(=O)Nc1cc(Cc2n[nH]c(=O)c3c2CCCC3)ccc1F
REMARK SMILES IDX 7 1 8 2 9 3 6 5 5 6 4 7 2 8 3 9 1 10 10 11 11 12 27 13 12 14
REMARK SMILES IDX 26 15 25 16 28 17 13 18 14 19 15 20 20 21 16 22 19 23 21 24
REMARK SMILES IDX 17 25 24 26 22 27 18 28 23 29
REMARK H PARENT 9 4 16 30
ROOT
ATOM      1  C   UNL     1     -42.796   0.550  -7.410  1.00  0.00     0.224 C 
ATOM      2  O   UNL     1     -43.350   1.175  -8.306  1.00  0.00    -0.275 OA
ATOM      3  N   UNL     1     -41.904   1.063  -6.486  1.00  0.00    -0.324 N 
ATOM      4  H   UNL     1     -41.529   0.424  -5.791  1.00  0.00     0.170 HD
ENDROOT
BRANCH   1   5
ATOM      5  C   UNL     1     -43.039  -0.934  -7.181  1.00  0.00     0.101 C 
BRANCH   5   6
ATOM      6  C   UNL     1     -41.821  -1.652  -6.600  1.00  0.00     0.018 C 
BRANCH   6   7
ATOM      7  C   UNL     1     -40.857  -2.084  -7.703  1.00  0.00     0.076 C 
BRANCH   7   8
ATOM      8  C   UNL     1     -39.602  -1.231  -7.756  1.00  0.00     0.129 C 
ATOM      9  O   UNL     1     -39.279  -0.460  -6.855  1.00  0.00    -0.300 OA
ATOM     10  C   UNL     1     -38.745  -1.389  -8.986  1.00  0.00     0.087 C 
ENDBRANCH   7   8
ENDBRANCH   6   7
ENDBRANCH   5   6
ENDBRANCH   1   5
BRANCH   3  11
ATOM     11  C   UNL     1     -41.433   2.389  -6.379  1.00  0.00     0.077 A 
ATOM     12  C   UNL     1     -40.757   3.076  -7.390  1.00  0.00     0.033 A 
ATOM     13  C   UNL     1     -41.665   3.048  -5.166  1.00  0.00     0.146 A 
ATOM     14  C   UNL     1     -40.333   4.406  -7.197  1.00  0.00    -0.040 A 
ATOM     15  C   UNL     1     -41.238   4.353  -4.948  1.00  0.00     0.042 A 
ATOM     16  C   UNL     1     -40.566   5.031  -5.963  1.00  0.00     0.007 A 
ATOM     17  F   UNL     1     -42.313   2.405  -4.181  1.00  0.00    -0.205 F 
BRANCH  14  18
ATOM     18  C   UNL     1     -39.584   5.146  -8.286  1.00  0.00     0.094 C 
BRANCH  18  19
ATOM     19  C   UNL     1     -40.334   6.344  -8.863  1.00  0.00     0.069 A 
ATOM     20  N   UNL     1     -41.433   6.082  -9.504  1.00  0.00    -0.177 NA
ATOM     21  C   UNL     1     -39.789   7.726  -8.672  1.00  0.00    -0.016 A 
ATOM     22  N   UNL     1     -42.127   7.135 -10.011  1.00  0.00    -0.243 N 
ATOM     23  C   UNL     1     -40.520   8.736  -9.173  1.00  0.00     0.024 A 
ATOM     24  C   UNL     1     -38.481   7.954  -7.967  1.00  0.00     0.038 C 
ATOM     25  C   UNL     1     -41.784   8.455  -9.898  1.00  0.00     0.267 A 
ATOM     26  C   UNL     1     -40.134  10.184  -9.044  1.00  0.00     0.042 C 
ATOM     27  C   UNL     1     -37.915   9.362  -8.184  1.00  0.00     0.005 C 
ATOM     28  O   UNL     1     -42.468   9.354 -10.377  1.00  0.00    -0.268 OA
ATOM     29  C   UNL     1     -39.005  10.417  -8.037  1.00  0.00     0.005 C 
ATOM     30  H   UNL     1     -42.999   6.920 -10.484  1.00  0.00     0.194 HD
ENDBRANCH  18  19
ENDBRANCH  14  18
ENDBRANCH   3  11
TORSDOF 7
ENDMDL
MODEL 3
REMARK VINA RESULT:     -10.2      1.871      3.082
REMARK SMILES CC(=O)CCCC(=O)Nc1cc(Cc2n[nH]c(=O)c3c2CCCC3)ccc1F
REMARK SMILES IDX 7 1 8 2 9 3 6 5 5 6 4 7 2 8 3 9 1 10 10 11 11 12 27 13 12 14
REMARK SMILES IDX 26 15 25 16 28 17 13 18 14 19 15 20 20 21 16 22 19 23 21 24
REMARK SMILES IDX 17 25 24 26 22 27 18 28 23 29
REMARK H PARENT 9 4 16 30
ROOT
ATOM      1  C   UNL     1     -40.926   0.092  -6.611  1.00  0.00     0.224 C 
ATOM      2  O   UNL     1     -42.024   0.501  -6.966  1.00  0.00    -0.275 OA
ATOM      3  N   UNL     1     -39.863   0.866  -6.184  1.00  0.00    -0.324 N 
ATOM      4  H   UNL     1     -39.011   0.385  -5.911  1.00  0.00     0.170 HD
ENDROOT
BRANCH   1   5
ATOM      5  C   UNL     1     -40.579  -1.390  -6.581  1.00  0.00     0.101 C 
BRANCH   5   6
ATOM      6  C   UNL     1     -40.240  -1.947  -7.963  1.00  0.00     0.018 C 
BRANCH   6   7
ATOM      7  C   UNL     1     -38.863  -1.473  -8.426  1.00  0.00     0.076 C 
BRANCH   7   8
ATOM      8  C   UNL     1     -38.863  -0.979  -9.862  1.00  0.00     0.129 C 
ATOM      9  O   UNL     1     -38.349  -1.607 -10.786  1.00  0.00    -0.300 OA
ATOM     10  C   UNL     1     -39.549   0.341 -10.109  1.00  0.00     0.087 C 
ENDBRANCH   7   8
ENDBRANCH   6   7
ENDBRANCH   5   6
ENDBRANCH   1   5
BRANCH   3  11
ATOM     11  C   UNL     1     -39.804   2.273  -6.076  1.00  0.00     0.077 A 
ATOM     12  C   UNL     1     -39.330   3.127  -7.075  1.00  0.00     0.033 A 
ATOM     13  C   UNL     1     -40.251   2.835  -4.875  1.00  0.00     0.146 A 
ATOM     14  C   UNL     1     -39.319   4.523  -6.882  1.00  0.00    -0.040 A 
ATOM     15  C   UNL     1     -40.230   4.208  -4.657  1.00  0.00     0.042 A 
ATOM     16  C   UNL     1     -39.759   5.052  -5.660  1.00  0.00     0.007 A 
ATOM     17  F   UNL     1     -40.710   2.031  -3.901  1.00  0.00    -0.205 F 
BRANCH  14  18
ATOM     18  C   UNL     1     -38.790   5.449  -7.957  1.00  0.00     0.094 C 
BRANCH  18  19
ATOM     19  C   UNL     1     -39.873   6.176  -8.750  1.00  0.00     0.069 A 
ATOM     20  N   UNL     1     -40.759   5.428  -9.335  1.00  0.00    -0.177 NA
ATOM     21  C   UNL     1     -39.868   7.672  -8.818  1.00  0.00    -0.016 A 
ATOM     22  N   UNL     1     -41.744   6.054 -10.032  1.00  0.00    -0.243 N 
ATOM     23  C   UNL     1     -40.872   8.247  -9.501  1.00  0.00     0.024 A 
ATOM     24  C   UNL     1     -38.779   8.475  -8.163  1.00  0.00     0.038 C 
ATOM     25  C   UNL     1     -41.900   7.408 -10.166  1.00  0.00     0.267 A 
ATOM     26  C   UNL     1     -41.034   9.735  -9.643  1.00  0.00     0.042 C 
ATOM     27  C   UNL     1     -38.736   9.932  -8.636  1.00  0.00     0.005 C 
ATOM     28  O   UNL     1     -42.822   7.902 -10.806  1.00  0.00    -0.268 OA
ATOM     29  C   UNL     1     -40.136  10.531  -8.692  1.00  0.00     0.005 C 
ATOM     30  H   UNL     1     -42.447   5.461 -10.460  1.00  0.00     0.194 HD
ENDBRANCH  18  19
ENDBRANCH  14  18
ENDBRANCH   3  11
TORSDOF 7
ENDMDL
MODEL 4
REMARK VINA RESULT:      -9.9      1.888      2.605
REMARK SMILES CC(=O)CCCC(=O)Nc1cc(Cc2n[nH]c(=O)c3c2CCCC3)ccc1F
REMARK SMILES IDX 7 1 8 2 9 3 6 5 5 6 4 7 2 8 3 9 1 10 10 11 11 12 27 13 12 14
REMARK SMILES IDX 26 15 25 16 28 17 13 18 14 19 15 20 20 21 16 22 19 23 21 24
REMARK SMILES IDX 17 25 24 26 22 27 18 28 23 29
REMARK H PARENT 9 4 16 30
ROOT
ATOM      1  C   UNL     1     -40.990   0.989  -4.930  1.00  0.00     0.224 C 
ATOM      2  O   UNL     1     -40.367   1.567  -4.050  1.00  0.00    -0.275 OA
ATOM      3  N   UNL     1     -40.751   1.070  -6.290  1.00  0.00    -0.324 N 
ATOM      4  H   UNL     1     -41.348   0.524  -6.905  1.00  0.00     0.170 HD
ENDROOT
BRANCH   1   5
ATOM      5  C   UNL     1     -42.153   0.055  -4.627  1.00  0.00     0.101 C 
BRANCH   5   6
ATOM      6  C   UNL     1     -43.227   0.072  -5.714  1.00  0.00     0.018 C 
BRANCH   6   7
ATOM      7  C   UNL     1     -43.390  -1.307  -6.350  1.00  0.00     0.076 C 
BRANCH   7   8
ATOM      8  C   UNL     1     -42.259  -1.655  -7.302  1.00  0.00     0.129 C 
ATOM      9  O   UNL     1     -41.973  -0.970  -8.281  1.00  0.00    -0.300 OA
ATOM     10  C   UNL     1     -41.477  -2.902  -6.974  1.00  0.00     0.087 C 
ENDBRANCH   7   8
ENDBRANCH   6   7
ENDBRANCH   5   6
ENDBRANCH   1   5
BRANCH   3  11
ATOM     11  C   UNL     1     -39.764   1.831  -6.952  1.00  0.00     0.077 A 
ATOM     12  C   UNL     1     -39.724   3.227  -6.983  1.00  0.00     0.033 A 
ATOM     13  C   UNL     1     -38.763   1.121  -7.625  1.00  0.00     0.146 A 
ATOM     14  C   UNL     1     -38.691   3.903  -7.662  1.00  0.00    -0.040 A 
ATOM     15  C   UNL     1     -37.745   1.768  -8.317  1.00  0.00     0.042 A 
ATOM     16  C   UNL     1     -37.713   3.161  -8.340  1.00  0.00     0.007 A 
ATOM     17  F   UNL     1     -38.782  -0.222  -7.608  1.00  0.00    -0.205 F 
BRANCH  14  18
ATOM     18  C   UNL     1     -38.657   5.416  -7.711  1.00  0.00     0.094 C 
BRANCH  18  19
ATOM     19  C   UNL     1     -39.735   6.041  -8.592  1.00  0.00     0.069 A 
ATOM     20  N   UNL     1     -40.565   5.219  -9.161  1.00  0.00    -0.177 NA
ATOM     21  C   UNL     1     -39.791   7.529  -8.759  1.00  0.00    -0.016 A 
ATOM     22  N   UNL     1     -41.545   5.753  -9.935  1.00  0.00    -0.243 N 
ATOM     23  C   UNL     1     -40.789   8.013  -9.517  1.00  0.00     0.024 A 
ATOM     24  C   UNL     1     -38.765   8.420  -8.117  1.00  0.00     0.038 C 
ATOM     25  C   UNL     1     -41.752   7.087 -10.164  1.00  0.00     0.267 A 
ATOM     26  C   UNL     1     -41.008   9.480  -9.763  1.00  0.00     0.042 C 
ATOM     27  C   UNL     1     -38.764   9.844  -8.684  1.00  0.00     0.005 C 
ATOM     28  O   UNL     1     -42.667   7.497 -10.871  1.00  0.00    -0.268 OA
ATOM     29  C   UNL     1     -40.184  10.374  -8.834  1.00  0.00     0.005 C 
ATOM     30  H   UNL     1     -42.204   5.103 -10.350  1.00  0.00     0.194 HD
ENDBRANCH  18  19
ENDBRANCH  14  18
ENDBRANCH   3  11
TORSDOF 7
ENDMDL
MODEL 5
REMARK VINA RESULT:      -9.8      2.111      2.513
REMARK SMILES CC(=O)CCCC(=O)Nc1cc(Cc2n[nH]c(=O)c3c2CCCC3)ccc1F
REMARK SMILES IDX 7 1 8 2 9 3 6 5 5 6 4 7 2 8 3 9 1 10 10 11 11 12 27 13 12 14
REMARK SMILES IDX 26 15 25 16 28 17 13 18 14 19 15 20 20 21 16 22 19 23 21 24
REMARK SMILES IDX 17 25 24 26 22 27 18 28 23 29
REMARK H PARENT 9 4 16 30
ROOT
ATOM      1  C   UNL     1     -40.054  -0.148  -5.408  1.00  0.00     0.224 C 
ATOM      2  O   UNL     1     -39.063  -0.105  -4.690  1.00  0.00    -0.275 OA
ATOM      3  N   UNL     1     -40.256   0.579  -6.567  1.00  0.00    -0.324 N 
ATOM      4  H   UNL     1     -41.128   0.434  -7.065  1.00  0.00     0.170 HD
ENDROOT
BRANCH   1   5
ATOM      5  C   UNL     1     -41.238  -1.055  -5.110  1.00  0.00     0.101 C 
BRANCH   5   6
ATOM      6  C   UNL     1     -42.423  -0.811  -6.044  1.00  0.00     0.018 C 
BRANCH   6   7
ATOM      7  C   UNL     1     -43.720  -1.349  -5.443  1.00  0.00     0.076 C 
BRANCH   7   8
ATOM      8  C   UNL     1     -44.811  -0.296  -5.359  1.00  0.00     0.129 C 
ATOM      9  O   UNL     1     -45.996  -0.573  -5.188  1.00  0.00    -0.300 OA
ATOM     10  C   UNL     1     -44.360   1.137  -5.484  1.00  0.00     0.087 C 
ENDBRANCH   7   8
ENDBRANCH   6   7
ENDBRANCH   5   6
ENDBRANCH   1   5
BRANCH   3  11
ATOM     11  C   UNL     1     -39.389   1.521  -7.161  1.00  0.00     0.077 A 
ATOM     12  C   UNL     1     -39.513   2.907  -7.034  1.00  0.00     0.033 A 
ATOM     13  C   UNL     1     -38.336   1.014  -7.932  1.00  0.00     0.146 A 
ATOM     14  C   UNL     1     -38.590   3.772  -7.656  1.00  0.00    -0.040 A 
ATOM     15  C   UNL     1     -37.427   1.851  -8.570  1.00  0.00     0.042 A 
ATOM     16  C   UNL     1     -37.557   3.231  -8.436  1.00  0.00     0.007 A 
ATOM     17  F   UNL     1     -38.199  -0.315  -8.068  1.00  0.00    -0.205 F 
BRANCH  14  18
ATOM     18  C   UNL     1     -38.734   5.274  -7.534  1.00  0.00     0.094 C 
BRANCH  18  19
ATOM     19  C   UNL     1     -39.753   5.889  -8.491  1.00  0.00     0.069 A 
ATOM     20  N   UNL     1     -40.565   5.062  -9.077  1.00  0.00    -0.177 NA
ATOM     21  C   UNL     1     -39.772   7.371  -8.706  1.00  0.00    -0.016 A 
ATOM     22  N   UNL     1     -41.493   5.587  -9.920  1.00  0.00    -0.243 N 
ATOM     23  C   UNL     1     -40.720   7.847  -9.532  1.00  0.00     0.024 A 
ATOM     24  C   UNL     1     -38.767   8.266  -8.037  1.00  0.00     0.038 C 
ATOM     25  C   UNL     1     -41.664   6.916 -10.201  1.00  0.00     0.267 A 
ATOM     26  C   UNL     1     -40.899   9.308  -9.835  1.00  0.00     0.042 C 
ATOM     27  C   UNL     1     -38.710   9.670  -8.647  1.00  0.00     0.005 C 
ATOM     28  O   UNL     1     -42.532   7.318 -10.968  1.00  0.00    -0.268 OA
ATOM     29  C   UNL     1     -40.111  10.218  -8.890  1.00  0.00     0.005 C 
ATOM     30  H   UNL     1     -42.140   4.934 -10.349  1.00  0.00     0.194 HD
ENDBRANCH  18  19
ENDBRANCH  14  18
ENDBRANCH   3  11
TORSDOF 7
ENDMDL
MODEL 6
REMARK VINA RESULT:      -9.5      2.791      8.928
REMARK SMILES CC(=O)CCCC(=O)Nc1cc(Cc2n[nH]c(=O)c3c2CCCC3)ccc1F
REMARK SMILES IDX 7 1 8 2 9 3 6 5 5 6 4 7 2 8 3 9 1 10 10 11 11 12 27 13 12 14
REMARK SMILES IDX 26 15 25 16 28 17 13 18 14 19 15 20 20 21 16 22 19 23 21 24
REMARK SMILES IDX 17 25 24 26 22 27 18 28 23 29
REMARK H PARENT 9 4 16 30
ROOT
ATOM      1  C   UNL     1     -40.264   3.641  -8.992  1.00  0.00     0.224 C 
ATOM      2  O   UNL     1     -41.419   3.270  -9.157  1.00  0.00    -0.275 OA
ATOM      3  N   UNL     1     -39.136   2.842  -9.020  1.00  0.00    -0.324 N 
ATOM      4  H   UNL     1     -38.237   3.293  -8.874  1.00  0.00     0.170 HD
ENDROOT
BRANCH   1   5
ATOM      5  C   UNL     1     -39.905   5.097  -8.736  1.00  0.00     0.101 C 
BRANCH   5   6
ATOM      6  C   UNL     1     -40.925   6.072  -9.324  1.00  0.00     0.018 C 
BRANCH   6   7
ATOM      7  C   UNL     1     -40.475   7.520  -9.141  1.00  0.00     0.076 C 
BRANCH   7   8
ATOM      8  C   UNL     1     -41.379   8.513  -9.850  1.00  0.00     0.129 C 
ATOM      9  O   UNL     1     -42.483   8.210 -10.298  1.00  0.00    -0.300 OA
ATOM     10  C   UNL     1     -40.853   9.921  -9.968  1.00  0.00     0.087 C 
ENDBRANCH   7   8
ENDBRANCH   6   7
ENDBRANCH   5   6
ENDBRANCH   1   5
BRANCH   3  11
ATOM     11  C   UNL     1     -39.067   1.447  -9.227  1.00  0.00     0.077 A 
ATOM     12  C   UNL     1     -39.622   0.489  -8.376  1.00  0.00     0.033 A 
ATOM     13  C   UNL     1     -38.386   1.010 -10.370  1.00  0.00     0.146 A 
ATOM     14  C   UNL     1     -39.512  -0.885  -8.671  1.00  0.00    -0.040 A 
ATOM     15  C   UNL     1     -38.249  -0.341 -10.668  1.00  0.00     0.042 A 
ATOM     16  C   UNL     1     -38.809  -1.290  -9.815  1.00  0.00     0.007 A 
ATOM     17  F   UNL     1     -37.844   1.915 -11.201  1.00  0.00    -0.205 F 
BRANCH  14  18
ATOM     18  C   UNL     1     -40.098  -1.926  -7.741  1.00  0.00     0.094 C 
BRANCH  18  19
ATOM     19  C   UNL     1     -41.514  -1.615  -7.261  1.00  0.00     0.069 A 
ATOM     20  N   UNL     1     -42.447  -1.639  -8.165  1.00  0.00    -0.177 NA
ATOM     21  C   UNL     1     -41.760  -1.307  -5.817  1.00  0.00    -0.016 A 
ATOM     22  N   UNL     1     -43.718  -1.384  -7.759  1.00  0.00    -0.243 N 
ATOM     23  C   UNL     1     -43.036  -1.081  -5.458  1.00  0.00     0.024 A 
ATOM     24  C   UNL     1     -40.626  -1.242  -4.832  1.00  0.00     0.038 C 
ATOM     25  C   UNL     1     -44.116  -1.116  -6.476  1.00  0.00     0.267 A 
ATOM     26  C   UNL     1     -43.462  -0.787  -4.046  1.00  0.00     0.042 C 
ATOM     27  C   UNL     1     -41.012  -0.569  -3.511  1.00  0.00     0.005 C 
ATOM     28  O   UNL     1     -45.287  -0.903  -6.183  1.00  0.00    -0.268 OA
ATOM     29  C   UNL     1     -42.364  -1.068  -3.017  1.00  0.00     0.005 C 
ATOM     30  H   UNL     1     -44.442  -1.434  -8.468  1.00  0.00     0.194 HD
ENDBRANCH  18  19
ENDBRANCH  14  18
ENDBRANCH   3  11
TORSDOF 7
ENDMDL
MODEL 7
REMARK VINA RESULT:      -9.5      2.240      2.773
REMARK SMILES CC(=O)CCCC(=O)Nc1cc(Cc2n[nH]c(=O)c3c2CCCC3)ccc1F
REMARK SMILES IDX 7 1 8 2 9 3 6 5 5 6 4 7 2 8 3 9 1 10 10 11 11 12 27 13 12 14
REMARK SMILES IDX 26 15 25 16 28 17 13 18 14 19 15 20 20 21 16 22 19 23 21 24
REMARK SMILES IDX 17 25 24 26 22 27 18 28 23 29
REMARK H PARENT 9 4 16 30
ROOT
ATOM      1  C   UNL     1     -40.076   0.092  -5.522  1.00  0.00     0.224 C 
ATOM      2  O   UNL     1     -39.084   0.397  -4.872  1.00  0.00    -0.275 OA
ATOM      3  N   UNL     1     -40.935   0.966  -6.162  1.00  0.00    -0.324 N 
ATOM      4  H   UNL     1     -41.716   0.567  -6.672  1.00  0.00     0.170 HD
ENDROOT
BRANCH   1   5
ATOM      5  C   UNL     1     -40.503  -1.354  -5.727  1.00  0.00     0.101 C 
BRANCH   5   6
ATOM      6  C   UNL     1     -41.752  -1.722  -4.928  1.00  0.00     0.018 C 
BRANCH   6   7
ATOM      7  C   UNL     1     -43.005  -1.653  -5.799  1.00  0.00     0.076 C 
BRANCH   7   8
ATOM      8  C   UNL     1     -44.097  -0.789  -5.193  1.00  0.00     0.129 C 
ATOM      9  O   UNL     1     -44.752  -1.130  -4.211  1.00  0.00    -0.300 OA
ATOM     10  C   UNL     1     -44.337   0.541  -5.861  1.00  0.00     0.087 C 
ENDBRANCH   7   8
ENDBRANCH   6   7
ENDBRANCH   5   6
ENDBRANCH   1   5
BRANCH   3  11
ATOM     11  C   UNL     1     -40.868   2.376  -6.198  1.00  0.00     0.077 A 
ATOM     12  C   UNL     1     -40.436   3.123  -7.296  1.00  0.00     0.033 A 
ATOM     13  C   UNL     1     -41.263   3.058  -5.041  1.00  0.00     0.146 A 
ATOM     14  C   UNL     1     -40.413   4.532  -7.244  1.00  0.00    -0.040 A 
ATOM     15  C   UNL     1     -41.230   4.446  -4.963  1.00  0.00     0.042 A 
ATOM     16  C   UNL     1     -40.800   5.183  -6.063  1.00  0.00     0.007 A 
ATOM     17  F   UNL     1     -41.681   2.358  -3.974  1.00  0.00    -0.205 F 
BRANCH  14  18
ATOM     18  C   UNL     1     -39.929   5.342  -8.427  1.00  0.00     0.094 C 
BRANCH  18  19
ATOM     19  C   UNL     1     -39.022   6.514  -8.059  1.00  0.00     0.069 A 
ATOM     20  N   UNL     1     -37.982   6.232  -7.333  1.00  0.00    -0.177 NA
ATOM     21  C   UNL     1     -39.359   7.894  -8.534  1.00  0.00    -0.016 A 
ATOM     22  N   UNL     1     -37.151   7.256  -7.007  1.00  0.00    -0.243 N 
ATOM     23  C   UNL     1     -38.496   8.871  -8.204  1.00  0.00     0.024 A 
ATOM     24  C   UNL     1     -40.609   8.159  -9.324  1.00  0.00     0.038 C 
ATOM     25  C   UNL     1     -37.297   8.564  -7.385  1.00  0.00     0.267 A 
ATOM     26  C   UNL     1     -38.667  10.305  -8.624  1.00  0.00     0.042 C 
ATOM     27  C   UNL     1     -40.968   9.647  -9.405  1.00  0.00     0.005 C 
ATOM     28  O   UNL     1     -36.497   9.435  -7.059  1.00  0.00    -0.268 OA
ATOM     29  C   UNL     1     -39.735  10.491  -9.705  1.00  0.00     0.005 C 
ATOM     30  H   UNL     1     -36.326   7.019  -6.465  1.00  0.00     0.194 HD
ENDBRANCH  18  19
ENDBRANCH  14  18
ENDBRANCH   3  11
TORSDOF 7
ENDMDL
MODEL 8
REMARK VINA RESULT:      -9.1      4.414      7.801
REMARK SMILES CC(=O)CCCC(=O)Nc1cc(Cc2n[nH]c(=O)c3c2CCCC3)ccc1F
REMARK SMILES IDX 7 1 8 2 9 3 6 5 5 6 4 7 2 8 3 9 1 10 10 11 11 12 27 13 12 14
REMARK SMILES IDX 26 15 25 16 28 17 13 18 14 19 15 20 20 21 16 22 19 23 21 24
REMARK SMILES IDX 17 25 24 26 22 27 18 28 23 29
REMARK H PARENT 9 4 16 30
ROOT
ATOM      1  C   UNL     1     -35.793   4.701  -5.897  1.00  0.00     0.224 C 
ATOM      2  O   UNL     1     -35.145   4.812  -6.929  1.00  0.00    -0.275 OA
ATOM      3  N   UNL     1     -37.154   4.906  -5.760  1.00  0.00    -0.324 N 
ATOM      4  H   UNL     1     -37.559   4.769  -4.838  1.00  0.00     0.170 HD
ENDROOT
BRANCH   1   5
ATOM      5  C   UNL     1     -35.159   4.294  -4.576  1.00  0.00     0.101 C 
BRANCH   5   6
ATOM      6  C   UNL     1     -33.943   3.385  -4.756  1.00  0.00     0.018 C 
BRANCH   6   7
ATOM      7  C   UNL     1     -34.276   1.939  -4.392  1.00  0.00     0.076 C 
BRANCH   7   8
ATOM      8  C   UNL     1     -34.016   0.969  -5.531  1.00  0.00     0.129 C 
ATOM      9  O   UNL     1     -33.800  -0.228  -5.354  1.00  0.00    -0.300 OA
ATOM     10  C   UNL     1     -34.050   1.554  -6.920  1.00  0.00     0.087 C 
ENDBRANCH   7   8
ENDBRANCH   6   7
ENDBRANCH   5   6
ENDBRANCH   1   5
BRANCH   3  11
ATOM     11  C   UNL     1     -38.077   5.293  -6.756  1.00  0.00     0.077 A 
ATOM     12  C   UNL     1     -38.868   4.409  -7.492  1.00  0.00     0.033 A 
ATOM     13  C   UNL     1     -38.192   6.664  -7.014  1.00  0.00     0.146 A 
ATOM     14  C   UNL     1     -39.772   4.888  -8.461  1.00  0.00    -0.040 A 
ATOM     15  C   UNL     1     -39.063   7.156  -7.980  1.00  0.00     0.042 A 
ATOM     16  C   UNL     1     -39.850   6.267  -8.707  1.00  0.00     0.007 A 
ATOM     17  F   UNL     1     -37.439   7.531  -6.318  1.00  0.00    -0.205 F 
BRANCH  14  18
ATOM     18  C   UNL     1     -40.618   3.930  -9.273  1.00  0.00     0.094 C 
BRANCH  18  19
ATOM     19  C   UNL     1     -40.764   2.541  -8.655  1.00  0.00     0.069 A 
ATOM     20  N   UNL     1     -41.614   2.431  -7.678  1.00  0.00    -0.177 NA
ATOM     21  C   UNL     1     -39.949   1.402  -9.183  1.00  0.00    -0.016 A 
ATOM     22  N   UNL     1     -41.775   1.201  -7.124  1.00  0.00    -0.243 N 
ATOM     23  C   UNL     1     -40.156   0.200  -8.617  1.00  0.00     0.024 A 
ATOM     24  C   UNL     1     -38.941   1.610 -10.278  1.00  0.00     0.038 C 
ATOM     25  C   UNL     1     -41.133   0.055  -7.509  1.00  0.00     0.267 A 
ATOM     26  C   UNL     1     -39.445  -1.053  -9.046  1.00  0.00     0.042 C 
ATOM     27  C   UNL     1     -37.965   0.439 -10.431  1.00  0.00     0.005 C 
ATOM     28  O   UNL     1     -41.337  -1.026  -6.965  1.00  0.00    -0.268 OA
ATOM     29  C   UNL     1     -38.698  -0.896 -10.373  1.00  0.00     0.005 C 
ATOM     30  H   UNL     1     -42.463   1.122  -6.383  1.00  0.00     0.194 HD
ENDBRANCH  18  19
ENDBRANCH  14  18
ENDBRANCH   3  11
TORSDOF 7
ENDMDL
MODEL 9
REMARK VINA RESULT:      -9.1      2.524      3.813
REMARK SMILES CC(=O)CCCC(=O)Nc1cc(Cc2n[nH]c(=O)c3c2CCCC3)ccc1F
REMARK SMILES IDX 7 1 8 2 9 3 6 5 5 6 4 7 2 8 3 9 1 10 10 11 11 12 27 13 12 14
REMARK SMILES IDX 26 15 25 16 28 17 13 18 14 19 15 20 20 21 16 22 19 23 21 24
REMARK SMILES IDX 17 25 24 26 22 27 18 28 23 29
REMARK H PARENT 9 4 16 30
ROOT
ATOM      1  C   UNL     1     -41.365  -0.334  -7.261  1.00  0.00     0.224 C 
ATOM      2  O   UNL     1     -42.374  -0.104  -7.916  1.00  0.00    -0.275 OA
ATOM      3  N   UNL     1     -40.574   0.603  -6.623  1.00  0.00    -0.324 N 
ATOM      4  H   UNL     1     -39.767   0.263  -6.107  1.00  0.00     0.170 HD
ENDROOT
BRANCH   1   5
ATOM      5  C   UNL     1     -40.835  -1.744  -7.048  1.00  0.00     0.101 C 
BRANCH   5   6
ATOM      6  C   UNL     1     -40.076  -2.282  -8.261  1.00  0.00     0.018 C 
BRANCH   6   7
ATOM      7  C   UNL     1     -38.763  -1.531  -8.468  1.00  0.00     0.076 C 
BRANCH   7   8
ATOM      8  C   UNL     1     -38.585  -1.036  -9.892  1.00  0.00     0.129 C 
ATOM      9  O   UNL     1     -37.794  -1.545 -10.684  1.00  0.00    -0.300 OA
ATOM     10  C   UNL     1     -39.453   0.126 -10.304  1.00  0.00     0.087 C 
ENDBRANCH   7   8
ENDBRANCH   6   7
ENDBRANCH   5   6
ENDBRANCH   1   5
BRANCH   3  11
ATOM     11  C   UNL     1     -40.743   2.004  -6.593  1.00  0.00     0.077 A 
ATOM     12  C   UNL     1     -40.439   2.864  -7.651  1.00  0.00     0.033 A 
ATOM     13  C   UNL     1     -41.248   2.556  -5.410  1.00  0.00     0.146 A 
ATOM     14  C   UNL     1     -40.651   4.252  -7.535  1.00  0.00    -0.040 A 
ATOM     15  C   UNL     1     -41.446   3.925  -5.267  1.00  0.00     0.042 A 
ATOM     16  C   UNL     1     -41.143   4.774  -6.329  1.00  0.00     0.007 A 
ATOM     17  F   UNL     1     -41.545   1.747  -4.380  1.00  0.00    -0.205 F 
BRANCH  14  18
ATOM     18  C   UNL     1     -40.306   5.187  -8.674  1.00  0.00     0.094 C 
BRANCH  18  19
ATOM     19  C   UNL     1     -39.375   6.333  -8.289  1.00  0.00     0.069 A 
ATOM     20  N   UNL     1     -38.322   6.014  -7.599  1.00  0.00    -0.177 NA
ATOM     21  C   UNL     1     -39.705   7.733  -8.708  1.00  0.00    -0.016 A 
ATOM     22  N   UNL     1     -37.469   7.016  -7.259  1.00  0.00    -0.243 N 
ATOM     23  C   UNL     1     -38.822   8.687  -8.366  1.00  0.00     0.024 A 
ATOM     24  C   UNL     1     -40.970   8.042  -9.458  1.00  0.00     0.038 C 
ATOM     25  C   UNL     1     -37.607   8.337  -7.588  1.00  0.00     0.267 A 
ATOM     26  C   UNL     1     -38.983  10.137  -8.733  1.00  0.00     0.042 C 
ATOM     27  C   UNL     1     -41.310   9.536  -9.479  1.00  0.00     0.005 C 
ATOM     28  O   UNL     1     -36.788   9.186  -7.252  1.00  0.00    -0.268 OA
ATOM     29  C   UNL     1     -40.074  10.374  -9.779  1.00  0.00     0.005 C 
ATOM     30  H   UNL     1     -36.635   6.749  -6.746  1.00  0.00     0.194 HD
ENDBRANCH  18  19
ENDBRANCH  14  18
ENDBRANCH   3  11
TORSDOF 7
ENDMDL
