MODEL 1
REMARK VINA RESULT:      -9.3      0.000      0.000
REMARK SMILES C=CC(=O)N1CC(CCn2c(=O)ccc3cnc(Nc4ccc(-n5cccn5)cc4)nc32)C1
REMARK SMILES IDX 10 1 11 2 12 3 13 4 14 5 15 6 16 7 17 8 18 9 31 10 32 11
REMARK SMILES IDX 9 12 8 13 7 14 3 15 4 16 5 17 6 18 33 19 2 20 1 21 19 22
REMARK SMILES IDX 20 24 21 25 30 26 22 27 29 28 23 29 24 30 25 31 28 32 26 33
REMARK SMILES IDX 27 34
REMARK H PARENT 19 23
ROOT
ATOM      1  N   UNL     1      -0.662  14.898   4.148  1.00  0.00    -0.293 N 
ATOM      2  C   UNL     1      -1.206  13.736   3.625  1.00  0.00     0.252 A 
ATOM      3  O   UNL     1      -0.699  12.622   3.728  1.00  0.00    -0.269 OA
ATOM      4  C   UNL     1      -2.500  13.855   2.905  1.00  0.00     0.072 A 
ATOM      5  C   UNL     1      -3.121  15.030   2.764  1.00  0.00     0.019 A 
ATOM      6  C   UNL     1      -2.506  16.221   3.327  1.00  0.00     0.036 A 
ATOM      7  C   UNL     1      -3.065  17.473   3.238  1.00  0.00     0.127 A 
ATOM      8  N   UNL     1      -2.503  18.580   3.761  1.00  0.00    -0.221 NA
ATOM      9  C   UNL     1      -1.332  18.434   4.399  1.00  0.00     0.229 A 
ATOM     10  N   UNL     1      -0.712  17.253   4.531  1.00  0.00    -0.194 NA
ATOM     11  C   UNL     1      -1.301  16.161   4.001  1.00  0.00     0.148 A 
ENDROOT
BRANCH   1  12
ATOM     12  C   UNL     1       0.610  14.837   4.863  1.00  0.00     0.128 C 
BRANCH  12  13
ATOM     13  C   UNL     1       0.478  14.600   6.371  1.00  0.00     0.029 C 
BRANCH  13  14
ATOM     14  C   UNL     1       1.830  14.394   7.045  1.00  0.00     0.030 C 
ATOM     15  C   UNL     1       4.870  15.918   6.784  1.00  0.00     0.245 C 
ATOM     16  O   UNL     1       5.115  16.946   7.408  1.00  0.00    -0.270 OA
ATOM     17  N   UNL     1       3.736  15.176   6.972  1.00  0.00    -0.338 N 
ATOM     18  C   UNL     1       2.530  15.627   7.652  1.00  0.00     0.125 C 
ATOM     19  C   UNL     1       3.018  14.293   6.067  1.00  0.00     0.125 C 
BRANCH  15  20
ATOM     20  C   UNL     1       5.810  15.374   5.766  1.00  0.00     0.063 C 
ATOM     21  C   UNL     1       7.088  15.127   6.079  1.00  0.00     0.014 C 
ENDBRANCH  15  20
ENDBRANCH  13  14
ENDBRANCH  12  13
ENDBRANCH   1  12
BRANCH   9  22
ATOM     22  N   UNL     1      -0.811  19.605   4.939  1.00  0.00    -0.324 N 
ATOM     23  H   UNL     1      -1.474  20.353   4.792  1.00  0.00     0.170 HD
BRANCH  22  24
ATOM     24  C   UNL     1       0.374  19.928   5.606  1.00  0.00     0.041 A 
ATOM     25  C   UNL     1       1.129  18.889   6.177  1.00  0.00     0.028 A 
ATOM     26  C   UNL     1       0.876  21.226   5.722  1.00  0.00     0.028 A 
ATOM     27  C   UNL     1       2.337  19.134   6.844  1.00  0.00     0.030 A 
ATOM     28  C   UNL     1       2.083  21.485   6.386  1.00  0.00     0.030 A 
ATOM     29  C   UNL     1       2.823  20.440   6.950  1.00  0.00     0.065 A 
BRANCH  29  30
ATOM     30  N   UNL     1       4.047  20.726   7.617  1.00  0.00    -0.241 N 
ATOM     31  C   UNL     1       4.675  19.990   8.602  1.00  0.00     0.115 A 
ATOM     32  N   UNL     1       4.765  21.843   7.315  1.00  0.00    -0.177 NA
ATOM     33  C   UNL     1       5.829  20.658   8.939  1.00  0.00     0.042 A 
ATOM     34  C   UNL     1       5.829  21.791   8.115  1.00  0.00     0.135 A 
ENDBRANCH  29  30
ENDBRANCH  22  24
ENDBRANCH   9  22
TORSDOF 7
ENDMDL
MODEL 2
REMARK VINA RESULT:      -9.2      2.855      5.338
REMARK SMILES C=CC(=O)N1CC(CCn2c(=O)ccc3cnc(Nc4ccc(-n5cccn5)cc4)nc32)C1
REMARK SMILES IDX 10 1 11 2 12 3 13 4 14 5 15 6 16 7 17 8 18 9 31 10 32 11
REMARK SMILES IDX 9 12 8 13 7 14 3 15 4 16 5 17 6 18 33 19 2 20 1 21 19 22
REMARK SMILES IDX 20 24 21 25 30 26 22 27 29 28 23 29 24 30 25 31 28 32 26 33
REMARK SMILES IDX 27 34
REMARK H PARENT 19 23
ROOT
ATOM      1  N   UNL     1       0.325  14.530   4.355  1.00  0.00    -0.293 N 
ATOM      2  C   UNL     1       1.032  13.423   4.796  1.00  0.00     0.252 A 
ATOM      3  O   UNL     1       2.168  13.462   5.264  1.00  0.00    -0.269 OA
ATOM      4  C   UNL     1       0.355  12.104   4.706  1.00  0.00     0.072 A 
ATOM      5  C   UNL     1      -0.885  11.981   4.222  1.00  0.00     0.019 A 
ATOM      6  C   UNL     1      -1.582  13.173   3.768  1.00  0.00     0.036 A 
ATOM      7  C   UNL     1      -2.858  13.153   3.258  1.00  0.00     0.127 A 
ATOM      8  N   UNL     1      -3.512  14.254   2.839  1.00  0.00    -0.221 NA
ATOM      9  C   UNL     1      -2.866  15.426   2.932  1.00  0.00     0.229 A 
ATOM     10  N   UNL     1      -1.620  15.540   3.412  1.00  0.00    -0.194 NA
ATOM     11  C   UNL     1      -0.992  14.421   3.827  1.00  0.00     0.148 A 
ENDROOT
BRANCH   1  12
ATOM     12  C   UNL     1       0.946  15.850   4.419  1.00  0.00     0.128 C 
BRANCH  12  13
ATOM     13  C   UNL     1       1.240  16.343   5.841  1.00  0.00     0.029 C 
BRANCH  13  14
ATOM     14  C   UNL     1       2.573  17.079   5.934  1.00  0.00     0.030 C 
ATOM     15  C   UNL     1       5.786  16.104   6.530  1.00  0.00     0.245 C 
ATOM     16  O   UNL     1       6.493  15.673   5.624  1.00  0.00    -0.270 OA
ATOM     17  N   UNL     1       4.553  16.660   6.325  1.00  0.00    -0.338 N 
ATOM     18  C   UNL     1       3.757  16.533   5.111  1.00  0.00     0.125 C 
ATOM     19  C   UNL     1       3.394  16.749   7.197  1.00  0.00     0.125 C 
BRANCH  15  20
ATOM     20  C   UNL     1       6.227  16.074   7.952  1.00  0.00     0.063 C 
ATOM     21  C   UNL     1       7.458  15.660   8.277  1.00  0.00     0.014 C 
ENDBRANCH  15  20
ENDBRANCH  13  14
ENDBRANCH  12  13
ENDBRANCH   1  12
BRANCH   9  22
ATOM     22  N   UNL     1      -3.597  16.530   2.508  1.00  0.00    -0.324 N 
ATOM     23  H   UNL     1      -4.416  16.207   2.012  1.00  0.00     0.170 HD
BRANCH  22  24
ATOM     24  C   UNL     1      -3.433  17.913   2.628  1.00  0.00     0.041 A 
ATOM     25  C   UNL     1      -4.395  18.758   2.050  1.00  0.00     0.028 A 
ATOM     26  C   UNL     1      -2.376  18.517   3.314  1.00  0.00     0.028 A 
ATOM     27  C   UNL     1      -4.306  20.154   2.146  1.00  0.00     0.030 A 
ATOM     28  C   UNL     1      -2.275  19.910   3.418  1.00  0.00     0.030 A 
ATOM     29  C   UNL     1      -3.241  20.739   2.836  1.00  0.00     0.065 A 
BRANCH  29  30
ATOM     30  N   UNL     1      -3.120  22.152   2.958  1.00  0.00    -0.241 N 
ATOM     31  C   UNL     1      -2.036  22.880   3.407  1.00  0.00     0.115 A 
ATOM     32  N   UNL     1      -4.148  22.975   2.612  1.00  0.00    -0.177 NA
ATOM     33  C   UNL     1      -2.384  24.209   3.346  1.00  0.00     0.042 A 
ATOM     34  C   UNL     1      -3.694  24.205   2.851  1.00  0.00     0.135 A 
ENDBRANCH  29  30
ENDBRANCH  22  24
ENDBRANCH   9  22
TORSDOF 7
ENDMDL
MODEL 3
REMARK VINA RESULT:      -8.4      3.374      6.060
REMARK SMILES C=CC(=O)N1CC(CCn2c(=O)ccc3cnc(Nc4ccc(-n5cccn5)cc4)nc32)C1
REMARK SMILES IDX 10 1 11 2 12 3 13 4 14 5 15 6 16 7 17 8 18 9 31 10 32 11
REMARK SMILES IDX 9 12 8 13 7 14 3 15 4 16 5 17 6 18 33 19 2 20 1 21 19 22
REMARK SMILES IDX 20 24 21 25 30 26 22 27 29 28 23 29 24 30 25 31 28 32 26 33
REMARK SMILES IDX 27 34
REMARK H PARENT 19 23
ROOT
ATOM      1  N   UNL     1       0.089  14.752   4.252  1.00  0.00    -0.293 N 
ATOM      2  C   UNL     1       0.059  13.367   4.227  1.00  0.00     0.252 A 
ATOM      3  O   UNL     1       0.966  12.643   4.630  1.00  0.00    -0.269 OA
ATOM      4  C   UNL     1      -1.166  12.724   3.688  1.00  0.00     0.072 A 
ATOM      5  C   UNL     1      -2.201  13.443   3.243  1.00  0.00     0.019 A 
ATOM      6  C   UNL     1      -2.119  14.893   3.286  1.00  0.00     0.036 A 
ATOM      7  C   UNL     1      -3.128  15.720   2.857  1.00  0.00     0.127 A 
ATOM      8  N   UNL     1      -3.060  17.065   2.898  1.00  0.00    -0.221 NA
ATOM      9  C   UNL     1      -1.935  17.610   3.387  1.00  0.00     0.229 A 
ATOM     10  N   UNL     1      -0.899  16.882   3.825  1.00  0.00    -0.194 NA
ATOM     11  C   UNL     1      -0.998  15.538   3.775  1.00  0.00     0.148 A 
ENDROOT
BRANCH   1  12
ATOM     12  C   UNL     1       1.271  15.436   4.771  1.00  0.00     0.128 C 
BRANCH  12  13
ATOM     13  C   UNL     1       1.200  15.779   6.263  1.00  0.00     0.029 C 
BRANCH  13  14
ATOM     14  C   UNL     1       2.398  15.240   7.038  1.00  0.00     0.030 C 
ATOM     15  C   UNL     1       5.735  15.948   7.045  1.00  0.00     0.245 C 
ATOM     16  O   UNL     1       6.179  16.882   7.705  1.00  0.00    -0.270 OA
ATOM     17  N   UNL     1       4.439  15.516   7.129  1.00  0.00    -0.338 N 
ATOM     18  C   UNL     1       3.334  16.258   7.720  1.00  0.00     0.125 C 
ATOM     19  C   UNL     1       3.598  14.840   6.155  1.00  0.00     0.125 C 
BRANCH  15  20
ATOM     20  C   UNL     1       6.586  15.181   6.095  1.00  0.00     0.063 C 
ATOM     21  C   UNL     1       6.533  15.427   4.780  1.00  0.00     0.014 C 
ENDBRANCH  15  20
ENDBRANCH  13  14
ENDBRANCH  12  13
ENDBRANCH   1  12
BRANCH   9  22
ATOM     22  N   UNL     1      -1.930  19.000   3.428  1.00  0.00    -0.324 N 
ATOM     23  H   UNL     1      -1.022  19.313   3.742  1.00  0.00     0.170 HD
BRANCH  22  24
ATOM     24  C   UNL     1      -2.876  19.987   3.136  1.00  0.00     0.041 A 
ATOM     25  C   UNL     1      -2.801  21.213   3.819  1.00  0.00     0.028 A 
ATOM     26  C   UNL     1      -3.887  19.843   2.184  1.00  0.00     0.028 A 
ATOM     27  C   UNL     1      -3.703  22.256   3.565  1.00  0.00     0.030 A 
ATOM     28  C   UNL     1      -4.794  20.877   1.919  1.00  0.00     0.030 A 
ATOM     29  C   UNL     1      -4.708  22.092   2.608  1.00  0.00     0.065 A 
BRANCH  29  30
ATOM     30  N   UNL     1      -5.638  23.130   2.321  1.00  0.00    -0.241 N 
ATOM     31  C   UNL     1      -6.703  23.558   3.090  1.00  0.00     0.115 A 
ATOM     32  N   UNL     1      -5.551  23.851   1.170  1.00  0.00    -0.177 NA
ATOM     33  C   UNL     1      -7.314  24.583   2.406  1.00  0.00     0.042 A 
ATOM     34  C   UNL     1      -6.562  24.717   1.232  1.00  0.00     0.135 A 
ENDBRANCH  29  30
ENDBRANCH  22  24
ENDBRANCH   9  22
TORSDOF 7
ENDMDL
MODEL 4
REMARK VINA RESULT:      -8.4      2.499      8.885
REMARK SMILES C=CC(=O)N1CC(CCn2c(=O)ccc3cnc(Nc4ccc(-n5cccn5)cc4)nc32)C1
REMARK SMILES IDX 10 1 11 2 12 3 13 4 14 5 15 6 16 7 17 8 18 9 31 10 32 11
REMARK SMILES IDX 9 12 8 13 7 14 3 15 4 16 5 17 6 18 33 19 2 20 1 21 19 22
REMARK SMILES IDX 20 24 21 25 30 26 22 27 29 28 23 29 24 30 25 31 28 32 26 33
REMARK SMILES IDX 27 34
REMARK H PARENT 19 23
ROOT
ATOM      1  N   UNL     1       4.643  19.461   8.291  1.00  0.00    -0.293 N 
ATOM      2  C   UNL     1       5.395  20.344   9.049  1.00  0.00     0.252 A 
ATOM      3  O   UNL     1       5.073  21.505   9.290  1.00  0.00    -0.269 OA
ATOM      4  C   UNL     1       6.671  19.837   9.617  1.00  0.00     0.072 A 
ATOM      5  C   UNL     1       7.083  18.583   9.411  1.00  0.00     0.019 A 
ATOM      6  C   UNL     1       6.261  17.697   8.605  1.00  0.00     0.036 A 
ATOM      7  C   UNL     1       6.595  16.391   8.337  1.00  0.00     0.127 A 
ATOM      8  N   UNL     1       5.835  15.563   7.594  1.00  0.00    -0.221 NA
ATOM      9  C   UNL     1       4.692  16.058   7.095  1.00  0.00     0.229 A 
ATOM     10  N   UNL     1       4.289  17.319   7.300  1.00  0.00    -0.194 NA
ATOM     11  C   UNL     1       5.068  18.124   8.051  1.00  0.00     0.148 A 
ENDROOT
BRANCH   1  12
ATOM     12  C   UNL     1       3.382  19.908   7.708  1.00  0.00     0.128 C 
BRANCH  12  13
ATOM     13  C   UNL     1       3.535  20.727   6.421  1.00  0.00     0.029 C 
BRANCH  13  14
ATOM     14  C   UNL     1       2.554  21.894   6.358  1.00  0.00     0.030 C 
ATOM     15  C   UNL     1      -0.451  22.390   4.823  1.00  0.00     0.245 C 
ATOM     16  O   UNL     1      -1.495  22.005   5.342  1.00  0.00    -0.270 OA
ATOM     17  N   UNL     1       0.760  22.367   5.460  1.00  0.00    -0.338 N 
ATOM     18  C   UNL     1       1.070  21.608   6.664  1.00  0.00     0.125 C 
ATOM     19  C   UNL     1       2.110  22.274   4.931  1.00  0.00     0.125 C 
BRANCH  15  20
ATOM     20  C   UNL     1      -0.417  22.941   3.441  1.00  0.00     0.063 C 
ATOM     21  C   UNL     1      -1.423  22.709   2.588  1.00  0.00     0.014 C 
ENDBRANCH  15  20
ENDBRANCH  13  14
ENDBRANCH  12  13
ENDBRANCH   1  12
BRANCH   9  22
ATOM     22  N   UNL     1       3.938  15.152   6.357  1.00  0.00    -0.324 N 
ATOM     23  H   UNL     1       4.432  14.272   6.319  1.00  0.00     0.170 HD
BRANCH  22  24
ATOM     24  C   UNL     1       2.705  15.218   5.700  1.00  0.00     0.041 A 
ATOM     25  C   UNL     1       1.730  14.253   6.003  1.00  0.00     0.028 A 
ATOM     26  C   UNL     1       2.367  16.203   4.771  1.00  0.00     0.028 A 
ATOM     27  C   UNL     1       0.465  14.266   5.400  1.00  0.00     0.030 A 
ATOM     28  C   UNL     1       1.106  16.229   4.160  1.00  0.00     0.030 A 
ATOM     29  C   UNL     1       0.145  15.260   4.472  1.00  0.00     0.065 A 
BRANCH  29  30
ATOM     30  N   UNL     1      -1.130  15.307   3.841  1.00  0.00    -0.241 N 
ATOM     31  C   UNL     1      -1.896  16.418   3.548  1.00  0.00     0.115 A 
ATOM     32  N   UNL     1      -1.756  14.167   3.440  1.00  0.00    -0.177 NA
ATOM     33  C   UNL     1      -3.046  15.972   2.941  1.00  0.00     0.042 A 
ATOM     34  C   UNL     1      -2.904  14.579   2.903  1.00  0.00     0.135 A 
ENDBRANCH  29  30
ENDBRANCH  22  24
ENDBRANCH   9  22
TORSDOF 7
ENDMDL
MODEL 5
REMARK VINA RESULT:      -8.4      2.984      6.148
REMARK SMILES C=CC(=O)N1CC(CCn2c(=O)ccc3cnc(Nc4ccc(-n5cccn5)cc4)nc32)C1
REMARK SMILES IDX 10 1 11 2 12 3 13 4 14 5 15 6 16 7 17 8 18 9 31 10 32 11
REMARK SMILES IDX 9 12 8 13 7 14 3 15 4 16 5 17 6 18 33 19 2 20 1 21 19 22
REMARK SMILES IDX 20 24 21 25 30 26 22 27 29 28 23 29 24 30 25 31 28 32 26 33
REMARK SMILES IDX 27 34
REMARK H PARENT 19 23
ROOT
ATOM      1  N   UNL     1      -0.734  14.994   4.772  1.00  0.00    -0.293 N 
ATOM      2  C   UNL     1      -1.244  13.866   4.148  1.00  0.00     0.252 A 
ATOM      3  O   UNL     1      -2.363  13.793   3.647  1.00  0.00    -0.269 OA
ATOM      4  C   UNL     1      -0.361  12.674   4.073  1.00  0.00     0.072 A 
ATOM      5  C   UNL     1       0.875  12.680   4.581  1.00  0.00     0.019 A 
ATOM      6  C   UNL     1       1.361  13.886   5.230  1.00  0.00     0.036 A 
ATOM      7  C   UNL     1       2.615  13.995   5.781  1.00  0.00     0.127 A 
ATOM      8  N   UNL     1       3.073  15.111   6.380  1.00  0.00    -0.221 NA
ATOM      9  C   UNL     1       2.246  16.165   6.433  1.00  0.00     0.229 A 
ATOM     10  N   UNL     1       1.005  16.149   5.927  1.00  0.00    -0.194 NA
ATOM     11  C   UNL     1       0.575  15.019   5.329  1.00  0.00     0.148 A 
ENDROOT
BRANCH   1  12
ATOM     12  C   UNL     1      -1.561  16.193   4.875  1.00  0.00     0.128 C 
BRANCH  12  13
ATOM     13  C   UNL     1      -1.946  16.815   3.528  1.00  0.00     0.029 C 
BRANCH  13  14
ATOM     14  C   UNL     1      -1.553  18.286   3.437  1.00  0.00     0.030 C 
ATOM     15  C   UNL     1      -2.999  21.198   4.472  1.00  0.00     0.245 C 
ATOM     16  O   UNL     1      -2.856  21.597   5.624  1.00  0.00    -0.270 OA
ATOM     17  N   UNL     1      -2.315  20.130   3.955  1.00  0.00    -0.338 N 
ATOM     18  C   UNL     1      -1.598  19.126   4.730  1.00  0.00     0.125 C 
ATOM     19  C   UNL     1      -2.663  19.207   2.888  1.00  0.00     0.125 C 
BRANCH  15  20
ATOM     20  C   UNL     1      -3.931  21.861   3.520  1.00  0.00     0.063 C 
ATOM     21  C   UNL     1      -5.238  21.569   3.528  1.00  0.00     0.014 C 
ENDBRANCH  15  20
ENDBRANCH  13  14
ENDBRANCH  12  13
ENDBRANCH   1  12
BRANCH   9  22
ATOM     22  N   UNL     1       2.780  17.297   7.041  1.00  0.00    -0.324 N 
ATOM     23  H   UNL     1       2.106  18.047   6.981  1.00  0.00     0.170 HD
BRANCH  22  24
ATOM     24  C   UNL     1       3.991  17.580   7.679  1.00  0.00     0.041 A 
ATOM     25  C   UNL     1       4.120  18.800   8.364  1.00  0.00     0.028 A 
ATOM     26  C   UNL     1       5.084  16.711   7.701  1.00  0.00     0.028 A 
ATOM     27  C   UNL     1       5.297  19.144   9.044  1.00  0.00     0.030 A 
ATOM     28  C   UNL     1       6.266  17.042   8.376  1.00  0.00     0.030 A 
ATOM     29  C   UNL     1       6.380  18.261   9.054  1.00  0.00     0.065 A 
BRANCH  29  30
ATOM     30  N   UNL     1       7.590  18.576   9.736  1.00  0.00    -0.241 N 
ATOM     31  C   UNL     1       8.424  17.722  10.430  1.00  0.00     0.115 A 
ATOM     32  N   UNL     1       8.067  19.850   9.765  1.00  0.00    -0.177 NA
ATOM     33  C   UNL     1       9.466  18.476  10.917  1.00  0.00     0.042 A 
ATOM     34  C   UNL     1       9.191  19.777  10.476  1.00  0.00     0.135 A 
ENDBRANCH  29  30
ENDBRANCH  22  24
ENDBRANCH   9  22
TORSDOF 7
ENDMDL
MODEL 6
REMARK VINA RESULT:      -8.3      2.627      5.590
REMARK SMILES C=CC(=O)N1CC(CCn2c(=O)ccc3cnc(Nc4ccc(-n5cccn5)cc4)nc32)C1
REMARK SMILES IDX 10 1 11 2 12 3 13 4 14 5 15 6 16 7 17 8 18 9 31 10 32 11
REMARK SMILES IDX 9 12 8 13 7 14 3 15 4 16 5 17 6 18 33 19 2 20 1 21 19 22
REMARK SMILES IDX 20 24 21 25 30 26 22 27 29 28 23 29 24 30 25 31 28 32 26 33
REMARK SMILES IDX 27 34
REMARK H PARENT 19 23
ROOT
ATOM      1  N   UNL     1      -1.059  14.947   4.568  1.00  0.00    -0.293 N 
ATOM      2  C   UNL     1      -1.352  13.808   3.835  1.00  0.00     0.252 A 
ATOM      3  O   UNL     1      -2.390  13.636   3.201  1.00  0.00    -0.269 OA
ATOM      4  C   UNL     1      -0.327  12.734   3.810  1.00  0.00     0.072 A 
ATOM      5  C   UNL     1       0.833  12.853   4.462  1.00  0.00     0.019 A 
ATOM      6  C   UNL     1       1.091  14.066   5.221  1.00  0.00     0.036 A 
ATOM      7  C   UNL     1       2.251  14.286   5.922  1.00  0.00     0.127 A 
ATOM      8  N   UNL     1       2.499  15.409   6.624  1.00  0.00    -0.221 NA
ATOM      9  C   UNL     1       1.547  16.355   6.627  1.00  0.00     0.229 A 
ATOM     10  N   UNL     1       0.383  16.225   5.976  1.00  0.00    -0.194 NA
ATOM     11  C   UNL     1       0.165  15.091   5.278  1.00  0.00     0.148 A 
ENDROOT
BRANCH   1  12
ATOM     12  C   UNL     1      -2.034  16.033   4.628  1.00  0.00     0.128 C 
BRANCH  12  13
ATOM     13  C   UNL     1      -2.136  16.864   3.344  1.00  0.00     0.029 C 
BRANCH  13  14
ATOM     14  C   UNL     1      -1.483  18.235   3.490  1.00  0.00     0.030 C 
ATOM     15  C   UNL     1      -2.604  21.308   4.460  1.00  0.00     0.245 C 
ATOM     16  O   UNL     1      -2.671  21.608   5.648  1.00  0.00    -0.270 OA
ATOM     17  N   UNL     1      -2.013  20.160   4.005  1.00  0.00    -0.338 N 
ATOM     18  C   UNL     1      -1.687  18.995   4.816  1.00  0.00     0.125 C 
ATOM     19  C   UNL     1      -2.252  19.381   2.801  1.00  0.00     0.125 C 
BRANCH  15  20
ATOM     20  C   UNL     1      -3.152  22.190   3.394  1.00  0.00     0.063 C 
ATOM     21  C   UNL     1      -3.054  23.522   3.493  1.00  0.00     0.014 C 
ENDBRANCH  15  20
ENDBRANCH  13  14
ENDBRANCH  12  13
ENDBRANCH   1  12
BRANCH   9  22
ATOM     22  N   UNL     1       1.866  17.501   7.347  1.00  0.00    -0.324 N 
ATOM     23  H   UNL     1       1.684  17.331   8.326  1.00  0.00     0.170 HD
BRANCH  22  24
ATOM     24  C   UNL     1       2.360  18.762   7.002  1.00  0.00     0.041 A 
ATOM     25  C   UNL     1       1.474  19.705   6.456  1.00  0.00     0.028 A 
ATOM     26  C   UNL     1       3.686  19.159   7.187  1.00  0.00     0.028 A 
ATOM     27  C   UNL     1       1.893  20.996   6.104  1.00  0.00     0.030 A 
ATOM     28  C   UNL     1       4.119  20.445   6.841  1.00  0.00     0.030 A 
ATOM     29  C   UNL     1       3.224  21.374   6.297  1.00  0.00     0.065 A 
BRANCH  29  30
ATOM     30  N   UNL     1       3.685  22.677   5.955  1.00  0.00    -0.241 N 
ATOM     31  C   UNL     1       3.303  23.463   4.886  1.00  0.00     0.115 A 
ATOM     32  N   UNL     1       4.618  23.312   6.716  1.00  0.00    -0.177 NA
ATOM     33  C   UNL     1       4.016  24.636   4.968  1.00  0.00     0.042 A 
ATOM     34  C   UNL     1       4.809  24.484   6.112  1.00  0.00     0.135 A 
ENDBRANCH  29  30
ENDBRANCH  22  24
ENDBRANCH   9  22
TORSDOF 7
ENDMDL
MODEL 7
REMARK VINA RESULT:      -8.1      3.523      6.515
REMARK SMILES C=CC(=O)N1CC(CCn2c(=O)ccc3cnc(Nc4ccc(-n5cccn5)cc4)nc32)C1
REMARK SMILES IDX 10 1 11 2 12 3 13 4 14 5 15 6 16 7 17 8 18 9 31 10 32 11
REMARK SMILES IDX 9 12 8 13 7 14 3 15 4 16 5 17 6 18 33 19 2 20 1 21 19 22
REMARK SMILES IDX 20 24 21 25 30 26 22 27 29 28 23 29 24 30 25 31 28 32 26 33
REMARK SMILES IDX 27 34
REMARK H PARENT 19 23
ROOT
ATOM      1  N   UNL     1       0.249  14.651   4.273  1.00  0.00    -0.293 N 
ATOM      2  C   UNL     1       0.323  13.267   4.267  1.00  0.00     0.252 A 
ATOM      3  O   UNL     1       1.300  12.620   4.634  1.00  0.00    -0.269 OA
ATOM      4  C   UNL     1      -0.873  12.525   3.794  1.00  0.00     0.072 A 
ATOM      5  C   UNL     1      -1.980  13.157   3.391  1.00  0.00     0.019 A 
ATOM      6  C   UNL     1      -2.006  14.610   3.412  1.00  0.00     0.036 A 
ATOM      7  C   UNL     1      -3.094  15.352   3.022  1.00  0.00     0.127 A 
ATOM      8  N   UNL     1      -3.126  16.699   3.043  1.00  0.00    -0.221 NA
ATOM      9  C   UNL     1      -2.025  17.334   3.472  1.00  0.00     0.229 A 
ATOM     10  N   UNL     1      -0.917  16.693   3.868  1.00  0.00    -0.194 NA
ATOM     11  C   UNL     1      -0.915  15.345   3.839  1.00  0.00     0.148 A 
ENDROOT
BRANCH   1  12
ATOM     12  C   UNL     1       1.398  15.429   4.726  1.00  0.00     0.128 C 
BRANCH  12  13
ATOM     13  C   UNL     1       1.881  15.082   6.139  1.00  0.00     0.029 C 
BRANCH  13  14
ATOM     14  C   UNL     1       1.908  16.299   7.058  1.00  0.00     0.030 C 
ATOM     15  C   UNL     1       2.690  19.590   6.616  1.00  0.00     0.245 C 
ATOM     16  O   UNL     1       1.861  20.381   6.178  1.00  0.00    -0.270 OA
ATOM     17  N   UNL     1       2.390  18.301   6.967  1.00  0.00    -0.338 N 
ATOM     18  C   UNL     1       1.186  17.577   6.583  1.00  0.00     0.125 C 
ATOM     19  C   UNL     1       3.220  17.108   7.002  1.00  0.00     0.125 C 
BRANCH  15  20
ATOM     20  C   UNL     1       4.113  19.976   6.822  1.00  0.00     0.063 C 
ATOM     21  C   UNL     1       4.545  20.376   8.025  1.00  0.00     0.014 C 
ENDBRANCH  15  20
ENDBRANCH  13  14
ENDBRANCH  12  13
ENDBRANCH   1  12
BRANCH   9  22
ATOM     22  N   UNL     1      -2.123  18.721   3.495  1.00  0.00    -0.324 N 
ATOM     23  H   UNL     1      -1.613  19.070   4.295  1.00  0.00     0.170 HD
BRANCH  22  24
ATOM     24  C   UNL     1      -2.750  19.668   2.680  1.00  0.00     0.041 A 
ATOM     25  C   UNL     1      -1.996  20.758   2.214  1.00  0.00     0.028 A 
ATOM     26  C   UNL     1      -4.084  19.588   2.274  1.00  0.00     0.028 A 
ATOM     27  C   UNL     1      -2.551  21.736   1.377  1.00  0.00     0.030 A 
ATOM     28  C   UNL     1      -4.652  20.558   1.437  1.00  0.00     0.030 A 
ATOM     29  C   UNL     1      -3.888  21.639   0.982  1.00  0.00     0.065 A 
BRANCH  29  30
ATOM     30  N   UNL     1      -4.485  22.611   0.130  1.00  0.00    -0.241 N 
ATOM     31  C   UNL     1      -5.082  23.805   0.484  1.00  0.00     0.115 A 
ATOM     32  N   UNL     1      -4.520  22.433  -1.219  1.00  0.00    -0.177 NA
ATOM     33  C   UNL     1      -5.512  24.406  -0.675  1.00  0.00     0.042 A 
ATOM     34  C   UNL     1      -5.139  23.515  -1.690  1.00  0.00     0.135 A 
ENDBRANCH  29  30
ENDBRANCH  22  24
ENDBRANCH   9  22
TORSDOF 7
ENDMDL
MODEL 8
REMARK VINA RESULT:      -8.0      3.187      8.466
REMARK SMILES C=CC(=O)N1CC(CCn2c(=O)ccc3cnc(Nc4ccc(-n5cccn5)cc4)nc32)C1
REMARK SMILES IDX 10 1 11 2 12 3 13 4 14 5 15 6 16 7 17 8 18 9 31 10 32 11
REMARK SMILES IDX 9 12 8 13 7 14 3 15 4 16 5 17 6 18 33 19 2 20 1 21 19 22
REMARK SMILES IDX 20 24 21 25 30 26 22 27 29 28 23 29 24 30 25 31 28 32 26 33
REMARK SMILES IDX 27 34
REMARK H PARENT 19 23
ROOT
ATOM      1  N   UNL     1      -0.148  22.752   5.596  1.00  0.00    -0.293 N 
ATOM      2  C   UNL     1      -0.038  24.053   5.135  1.00  0.00     0.252 A 
ATOM      3  O   UNL     1      -0.992  24.784   4.876  1.00  0.00    -0.269 OA
ATOM      4  C   UNL     1       1.332  24.598   4.957  1.00  0.00     0.072 A 
ATOM      5  C   UNL     1       2.420  23.871   5.230  1.00  0.00     0.019 A 
ATOM      6  C   UNL     1       2.251  22.509   5.708  1.00  0.00     0.036 A 
ATOM      7  C   UNL     1       3.303  21.681   6.018  1.00  0.00     0.127 A 
ATOM      8  N   UNL     1       3.154  20.419   6.466  1.00  0.00    -0.221 NA
ATOM      9  C   UNL     1       1.901  19.961   6.608  1.00  0.00     0.229 A 
ATOM     10  N   UNL     1       0.816  20.694   6.326  1.00  0.00    -0.194 NA
ATOM     11  C   UNL     1       0.996  21.956   5.884  1.00  0.00     0.148 A 
ENDROOT
BRANCH   1  12
ATOM     12  C   UNL     1      -1.472  22.166   5.786  1.00  0.00     0.128 C 
BRANCH  12  13
ATOM     13  C   UNL     1      -2.381  22.244   4.554  1.00  0.00     0.029 C 
BRANCH  13  14
ATOM     14  C   UNL     1      -2.051  21.169   3.523  1.00  0.00     0.030 C 
ATOM     15  C   UNL     1      -3.396  18.133   2.745  1.00  0.00     0.245 C 
ATOM     16  O   UNL     1      -4.367  18.046   2.000  1.00  0.00    -0.270 OA
ATOM     17  N   UNL     1      -2.715  19.300   2.963  1.00  0.00    -0.338 N 
ATOM     18  C   UNL     1      -3.200  20.636   2.643  1.00  0.00     0.125 C 
ATOM     19  C   UNL     1      -1.935  19.746   4.105  1.00  0.00     0.125 C 
BRANCH  15  20
ATOM     20  C   UNL     1      -2.855  16.952   3.472  1.00  0.00     0.063 C 
ATOM     21  C   UNL     1      -2.993  15.718   2.969  1.00  0.00     0.014 C 
ENDBRANCH  15  20
ENDBRANCH  13  14
ENDBRANCH  12  13
ENDBRANCH   1  12
BRANCH   9  22
ATOM     22  N   UNL     1       1.807  18.661   7.096  1.00  0.00    -0.324 N 
ATOM     23  H   UNL     1       2.186  18.638   8.032  1.00  0.00     0.170 HD
BRANCH  22  24
ATOM     24  C   UNL     1       1.321  17.458   6.576  1.00  0.00     0.041 A 
ATOM     25  C   UNL     1       1.818  17.010   5.341  1.00  0.00     0.028 A 
ATOM     26  C   UNL     1       0.381  16.652   7.221  1.00  0.00     0.028 A 
ATOM     27  C   UNL     1       1.391  15.804   4.767  1.00  0.00     0.030 A 
ATOM     28  C   UNL     1      -0.054  15.445   6.660  1.00  0.00     0.030 A 
ATOM     29  C   UNL     1       0.450  15.011   5.428  1.00  0.00     0.065 A 
BRANCH  29  30
ATOM     30  N   UNL     1      -0.004  13.779   4.878  1.00  0.00    -0.241 N 
ATOM     31  C   UNL     1      -0.546  13.552   3.628  1.00  0.00     0.115 A 
ATOM     32  N   UNL     1       0.065  12.625   5.594  1.00  0.00    -0.177 NA
ATOM     33  C   UNL     1      -0.833  12.209   3.547  1.00  0.00     0.042 A 
ATOM     34  C   UNL     1      -0.437  11.691   4.786  1.00  0.00     0.135 A 
ENDBRANCH  29  30
ENDBRANCH  22  24
ENDBRANCH   9  22
TORSDOF 7
ENDMDL
MODEL 9
REMARK VINA RESULT:      -8.0      2.643      6.972
REMARK SMILES C=CC(=O)N1CC(CCn2c(=O)ccc3cnc(Nc4ccc(-n5cccn5)cc4)nc32)C1
REMARK SMILES IDX 10 1 11 2 12 3 13 4 14 5 15 6 16 7 17 8 18 9 31 10 32 11
REMARK SMILES IDX 9 12 8 13 7 14 3 15 4 16 5 17 6 18 33 19 2 20 1 21 19 22
REMARK SMILES IDX 20 24 21 25 30 26 22 27 29 28 23 29 24 30 25 31 28 32 26 33
REMARK SMILES IDX 27 34
REMARK H PARENT 19 23
ROOT
ATOM      1  N   UNL     1       2.160  16.628   5.734  1.00  0.00    -0.293 N 
ATOM      2  C   UNL     1       3.328  16.154   6.307  1.00  0.00     0.252 A 
ATOM      3  O   UNL     1       4.208  16.865   6.786  1.00  0.00    -0.269 OA
ATOM      4  C   UNL     1       3.513  14.681   6.353  1.00  0.00     0.072 A 
ATOM      5  C   UNL     1       2.595  13.841   5.866  1.00  0.00     0.019 A 
ATOM      6  C   UNL     1       1.388  14.389   5.270  1.00  0.00     0.036 A 
ATOM      7  C   UNL     1       0.385  13.612   4.744  1.00  0.00     0.127 A 
ATOM      8  N   UNL     1      -0.738  14.113   4.194  1.00  0.00    -0.221 NA
ATOM      9  C   UNL     1      -0.867  15.448   4.165  1.00  0.00     0.229 A 
ATOM     10  N   UNL     1       0.062  16.283   4.651  1.00  0.00    -0.194 NA
ATOM     11  C   UNL     1       1.174  15.753   5.199  1.00  0.00     0.148 A 
ENDROOT
BRANCH   1  12
ATOM     12  C   UNL     1       1.929  18.069   5.660  1.00  0.00     0.128 C 
BRANCH  12  13
ATOM     13  C   UNL     1       1.319  18.677   6.928  1.00  0.00     0.029 C 
BRANCH  13  14
ATOM     14  C   UNL     1       1.886  20.059   7.237  1.00  0.00     0.030 C 
ATOM     15  C   UNL     1       3.735  22.316   5.469  1.00  0.00     0.245 C 
ATOM     16  O   UNL     1       3.199  23.100   4.693  1.00  0.00    -0.270 OA
ATOM     17  N   UNL     1       3.038  21.504   6.322  1.00  0.00    -0.338 N 
ATOM     18  C   UNL     1       1.618  21.192   6.225  1.00  0.00     0.125 C 
ATOM     19  C   UNL     1       3.384  20.219   6.907  1.00  0.00     0.125 C 
BRANCH  15  20
ATOM     20  C   UNL     1       5.216  22.192   5.563  1.00  0.00     0.063 C 
ATOM     21  C   UNL     1       5.893  22.819   6.534  1.00  0.00     0.014 C 
ENDBRANCH  15  20
ENDBRANCH  13  14
ENDBRANCH  12  13
ENDBRANCH   1  12
BRANCH   9  22
ATOM     22  N   UNL     1      -2.055  15.908   3.609  1.00  0.00    -0.324 N 
ATOM     23  H   UNL     1      -2.653  15.116   3.419  1.00  0.00     0.170 HD
BRANCH  22  24
ATOM     24  C   UNL     1      -2.554  17.173   3.283  1.00  0.00     0.041 A 
ATOM     25  C   UNL     1      -3.759  17.256   2.567  1.00  0.00     0.028 A 
ATOM     26  C   UNL     1      -1.938  18.372   3.646  1.00  0.00     0.028 A 
ATOM     27  C   UNL     1      -4.330  18.489   2.221  1.00  0.00     0.030 A 
ATOM     28  C   UNL     1      -2.497  19.612   3.308  1.00  0.00     0.030 A 
ATOM     29  C   UNL     1      -3.698  19.679   2.594  1.00  0.00     0.065 A 
BRANCH  29  30
ATOM     30  N   UNL     1      -4.249  20.949   2.264  1.00  0.00    -0.241 N 
ATOM     31  C   UNL     1      -3.843  22.194   2.699  1.00  0.00     0.115 A 
ATOM     32  N   UNL     1      -5.312  21.053   1.420  1.00  0.00    -0.177 NA
ATOM     33  C   UNL     1      -4.673  23.122   2.115  1.00  0.00     0.042 A 
ATOM     34  C   UNL     1      -5.557  22.361   1.340  1.00  0.00     0.135 A 
ENDBRANCH  29  30
ENDBRANCH  22  24
ENDBRANCH   9  22
TORSDOF 7
ENDMDL
