MODEL 1
REMARK VINA RESULT:      -9.6      0.000      0.000
REMARK SMILES C=CC(=O)N1CC(CCn2c(=O)ccc3cnc(Nc4ccc(C5=CCN(C)CC5)cc4)nc32)C1
REMARK SMILES IDX 10 1 11 2 12 3 13 4 14 5 15 6 16 7 17 8 18 9 33 10 34 11
REMARK SMILES IDX 9 12 8 13 7 14 3 15 4 16 5 17 6 18 35 19 2 20 1 21 19 22
REMARK SMILES IDX 20 24 21 25 32 26 22 27 31 28 23 29 24 30 25 31 30 32 26 33
REMARK SMILES IDX 29 34 27 35 28 36
REMARK H PARENT 19 23
ROOT
ATOM      1  N   UNL     1       0.119  14.695   4.690  1.00  0.00    -0.293 N 
ATOM      2  C   UNL     1       0.990  13.678   5.050  1.00  0.00     0.252 A 
ATOM      3  O   UNL     1       2.082  13.856   5.585  1.00  0.00    -0.269 OA
ATOM      4  C   UNL     1       0.559  12.286   4.764  1.00  0.00     0.072 A 
ATOM      5  C   UNL     1      -0.601  12.021   4.155  1.00  0.00     0.019 A 
ATOM      6  C   UNL     1      -1.457  13.126   3.761  1.00  0.00     0.036 A 
ATOM      7  C   UNL     1      -2.658  12.959   3.114  1.00  0.00     0.127 A 
ATOM      8  N   UNL     1      -3.452  13.979   2.743  1.00  0.00    -0.221 NA
ATOM      9  C   UNL     1      -3.037  15.222   3.023  1.00  0.00     0.229 A 
ATOM     10  N   UNL     1      -1.879  15.483   3.652  1.00  0.00    -0.194 NA
ATOM     11  C   UNL     1      -1.106  14.439   4.017  1.00  0.00     0.148 A 
ENDROOT
BRANCH   1  12
ATOM     12  C   UNL     1       0.503  16.077   4.948  1.00  0.00     0.128 C 
BRANCH  12  13
ATOM     13  C   UNL     1      -0.208  16.651   6.176  1.00  0.00     0.029 C 
BRANCH  13  14
ATOM     14  C   UNL     1       0.703  17.633   6.899  1.00  0.00     0.030 C 
ATOM     15  C   UNL     1       3.116  19.813   7.066  1.00  0.00     0.245 C 
ATOM     16  O   UNL     1       2.776  20.977   7.262  1.00  0.00    -0.270 OA
ATOM     17  N   UNL     1       2.303  18.869   6.500  1.00  0.00    -0.338 N 
ATOM     18  C   UNL     1       0.877  19.007   6.229  1.00  0.00     0.125 C 
ATOM     19  C   UNL     1       2.222  17.433   6.731  1.00  0.00     0.125 C 
BRANCH  15  20
ATOM     20  C   UNL     1       4.471  19.376   7.491  1.00  0.00     0.063 C 
ATOM     21  C   UNL     1       4.854  19.246   8.768  1.00  0.00     0.014 C 
ENDBRANCH  15  20
ENDBRANCH  13  14
ENDBRANCH  12  13
ENDBRANCH   1  12
BRANCH   9  22
ATOM     22  N   UNL     1      -3.775  16.346   2.665  1.00  0.00    -0.324 N 
ATOM     23  H   UNL     1      -4.648  16.051   2.251  1.00  0.00     0.170 HD
BRANCH  22  24
ATOM     24  C   UNL     1      -3.522  17.722   2.683  1.00  0.00     0.041 A 
ATOM     25  C   UNL     1      -4.326  18.672   2.051  1.00  0.00     0.027 A 
ATOM     26  C   UNL     1      -2.371  18.183   3.336  1.00  0.00     0.027 A 
ATOM     27  C   UNL     1      -4.005  20.037   2.085  1.00  0.00     0.010 A 
ATOM     28  C   UNL     1      -2.046  19.547   3.374  1.00  0.00     0.010 A 
ATOM     29  C   UNL     1      -2.865  20.496   2.753  1.00  0.00    -0.023 A 
BRANCH  29  30
ATOM     30  C   UNL     1      -2.521  21.931   2.770  1.00  0.00    -0.042 C 
ATOM     31  C   UNL     1      -1.264  22.361   2.540  1.00  0.00    -0.007 C 
ATOM     32  C   UNL     1      -3.619  22.929   3.062  1.00  0.00     0.051 C 
ATOM     33  C   UNL     1      -0.864  23.812   2.557  1.00  0.00     0.112 C 
ATOM     34  C   UNL     1      -3.205  24.373   2.721  1.00  0.00     0.089 C 
ATOM     35  N   UNL     1      -1.845  24.730   3.156  1.00  0.00    -0.302 NA
ATOM     36  C   UNL     1      -1.728  24.765   4.613  1.00  0.00     0.105 C 
ENDBRANCH  29  30
ENDBRANCH  22  24
ENDBRANCH   9  22
TORSDOF 7
ENDMDL
MODEL 2
REMARK VINA RESULT:      -9.5      1.868      2.245
REMARK SMILES C=CC(=O)N1CC(CCn2c(=O)ccc3cnc(Nc4ccc(C5=CCN(C)CC5)cc4)nc32)C1
REMARK SMILES IDX 10 1 11 2 12 3 13 4 14 5 15 6 16 7 17 8 18 9 33 10 34 11
REMARK SMILES IDX 9 12 8 13 7 14 3 15 4 16 5 17 6 18 35 19 2 20 1 21 19 22
REMARK SMILES IDX 20 24 21 25 32 26 22 27 31 28 23 29 24 30 25 31 30 32 26 33
REMARK SMILES IDX 29 34 27 35 28 36
REMARK H PARENT 19 23
ROOT
ATOM      1  N   UNL     1       0.252  14.323   4.440  1.00  0.00    -0.293 N 
ATOM      2  C   UNL     1       0.803  13.088   4.741  1.00  0.00     0.252 A 
ATOM      3  O   UNL     1       1.927  12.926   5.211  1.00  0.00    -0.269 OA
ATOM      4  C   UNL     1      -0.033  11.891   4.473  1.00  0.00     0.072 A 
ATOM      5  C   UNL     1      -1.251  11.991   3.933  1.00  0.00     0.019 A 
ATOM      6  C   UNL     1      -1.765  13.309   3.598  1.00  0.00     0.036 A 
ATOM      7  C   UNL     1      -2.996  13.516   3.023  1.00  0.00     0.127 A 
ATOM      8  N   UNL     1      -3.473  14.733   2.706  1.00  0.00    -0.221 NA
ATOM      9  C   UNL     1      -2.696  15.793   2.968  1.00  0.00     0.229 A 
ATOM     10  N   UNL     1      -1.480  15.687   3.528  1.00  0.00    -0.194 NA
ATOM     11  C   UNL     1      -1.029  14.454   3.839  1.00  0.00     0.148 A 
ENDROOT
BRANCH   1  12
ATOM     12  C   UNL     1       1.040  15.526   4.682  1.00  0.00     0.128 C 
BRANCH  12  13
ATOM     13  C   UNL     1       0.669  16.197   6.007  1.00  0.00     0.029 C 
BRANCH  13  14
ATOM     14  C   UNL     1       1.898  16.317   6.897  1.00  0.00     0.030 C 
ATOM     15  C   UNL     1       5.014  17.042   7.508  1.00  0.00     0.245 C 
ATOM     16  O   UNL     1       5.208  18.038   8.200  1.00  0.00    -0.270 OA
ATOM     17  N   UNL     1       3.886  16.846   6.759  1.00  0.00    -0.338 N 
ATOM     18  C   UNL     1       2.668  17.647   6.805  1.00  0.00     0.125 C 
ATOM     19  C   UNL     1       3.184  15.617   6.414  1.00  0.00     0.125 C 
BRANCH  15  20
ATOM     20  C   UNL     1       6.034  15.962   7.494  1.00  0.00     0.063 C 
ATOM     21  C   UNL     1       6.645  15.518   6.387  1.00  0.00     0.014 C 
ENDBRANCH  15  20
ENDBRANCH  13  14
ENDBRANCH  12  13
ENDBRANCH   1  12
BRANCH   9  22
ATOM     22  N   UNL     1      -3.089  17.091   2.661  1.00  0.00    -0.324 N 
ATOM     23  H   UNL     1      -3.703  17.071   1.859  1.00  0.00     0.170 HD
BRANCH  22  24
ATOM     24  C   UNL     1      -2.751  18.353   3.160  1.00  0.00     0.041 A 
ATOM     25  C   UNL     1      -3.292  19.551   2.688  1.00  0.00     0.027 A 
ATOM     26  C   UNL     1      -1.779  18.438   4.167  1.00  0.00     0.027 A 
ATOM     27  C   UNL     1      -2.894  20.788   3.215  1.00  0.00     0.010 A 
ATOM     28  C   UNL     1      -1.378  19.672   4.696  1.00  0.00     0.010 A 
ATOM     29  C   UNL     1      -1.937  20.867   4.231  1.00  0.00    -0.023 A 
BRANCH  29  30
ATOM     30  C   UNL     1      -1.506  22.173   4.769  1.00  0.00    -0.042 C 
ATOM     31  C   UNL     1      -2.009  23.333   4.302  1.00  0.00    -0.007 C 
ATOM     32  C   UNL     1      -0.467  22.189   5.868  1.00  0.00     0.051 C 
ATOM     33  C   UNL     1      -1.594  24.686   4.813  1.00  0.00     0.112 C 
ATOM     34  C   UNL     1      -0.362  23.563   6.556  1.00  0.00     0.089 C 
ATOM     35  N   UNL     1      -0.370  24.705   5.628  1.00  0.00    -0.302 NA
ATOM     36  C   UNL     1       0.830  24.742   4.794  1.00  0.00     0.105 C 
ENDBRANCH  29  30
ENDBRANCH  22  24
ENDBRANCH   9  22
TORSDOF 7
ENDMDL
MODEL 3
REMARK VINA RESULT:      -9.0      2.808      3.527
REMARK SMILES C=CC(=O)N1CC(CCn2c(=O)ccc3cnc(Nc4ccc(C5=CCN(C)CC5)cc4)nc32)C1
REMARK SMILES IDX 10 1 11 2 12 3 13 4 14 5 15 6 16 7 17 8 18 9 33 10 34 11
REMARK SMILES IDX 9 12 8 13 7 14 3 15 4 16 5 17 6 18 35 19 2 20 1 21 19 22
REMARK SMILES IDX 20 24 21 25 32 26 22 27 31 28 23 29 24 30 25 31 30 32 26 33
REMARK SMILES IDX 29 34 27 35 28 36
REMARK H PARENT 19 23
ROOT
ATOM      1  N   UNL     1       0.510  15.032   4.959  1.00  0.00    -0.293 N 
ATOM      2  C   UNL     1       0.893  13.701   4.971  1.00  0.00     0.252 A 
ATOM      3  O   UNL     1       1.930  13.281   5.482  1.00  0.00    -0.269 OA
ATOM      4  C   UNL     1      -0.021  12.728   4.321  1.00  0.00     0.072 A 
ATOM      5  C   UNL     1      -1.148  13.118   3.717  1.00  0.00     0.019 A 
ATOM      6  C   UNL     1      -1.481  14.532   3.697  1.00  0.00     0.036 A 
ATOM      7  C   UNL     1      -2.606  15.035   3.087  1.00  0.00     0.127 A 
ATOM      8  N   UNL     1      -2.915  16.344   3.061  1.00  0.00    -0.221 NA
ATOM      9  C   UNL     1      -2.073  17.193   3.664  1.00  0.00     0.229 A 
ATOM     10  N   UNL     1      -0.951  16.794   4.285  1.00  0.00    -0.194 NA
ATOM     11  C   UNL     1      -0.668  15.475   4.299  1.00  0.00     0.148 A 
ENDROOT
BRANCH   1  12
ATOM     12  C   UNL     1       1.380  16.023   5.581  1.00  0.00     0.128 C 
BRANCH  12  13
ATOM     13  C   UNL     1       2.423  16.567   4.602  1.00  0.00     0.029 C 
BRANCH  13  14
ATOM     14  C   UNL     1       3.741  16.812   5.322  1.00  0.00     0.030 C 
ATOM     15  C   UNL     1       5.799  16.564   7.834  1.00  0.00     0.245 C 
ATOM     16  O   UNL     1       6.767  15.828   7.665  1.00  0.00    -0.270 OA
ATOM     17  N   UNL     1       4.621  16.440   7.149  1.00  0.00    -0.338 N 
ATOM     18  C   UNL     1       4.381  15.583   5.993  1.00  0.00     0.125 C 
ATOM     19  C   UNL     1       3.666  17.454   6.722  1.00  0.00     0.125 C 
BRANCH  15  20
ATOM     20  C   UNL     1       5.901  17.679   8.811  1.00  0.00     0.063 C 
ATOM     21  C   UNL     1       6.984  17.927   9.559  1.00  0.00     0.014 C 
ENDBRANCH  15  20
ENDBRANCH  13  14
ENDBRANCH  12  13
ENDBRANCH   1  12
BRANCH   9  22
ATOM     22  N   UNL     1      -2.292  18.567   3.677  1.00  0.00    -0.324 N 
ATOM     23  H   UNL     1      -2.063  18.932   4.590  1.00  0.00     0.170 HD
BRANCH  22  24
ATOM     24  C   UNL     1      -2.821  19.475   2.753  1.00  0.00     0.041 A 
ATOM     25  C   UNL     1      -4.109  19.389   2.222  1.00  0.00     0.027 A 
ATOM     26  C   UNL     1      -2.003  20.517   2.294  1.00  0.00     0.027 A 
ATOM     27  C   UNL     1      -4.573  20.319   1.280  1.00  0.00     0.010 A 
ATOM     28  C   UNL     1      -2.462  21.449   1.352  1.00  0.00     0.010 A 
ATOM     29  C   UNL     1      -3.760  21.366   0.836  1.00  0.00    -0.023 A 
BRANCH  29  30
ATOM     30  C   UNL     1      -4.245  22.331  -0.170  1.00  0.00    -0.042 C 
ATOM     31  C   UNL     1      -5.221  23.218   0.111  1.00  0.00    -0.007 C 
ATOM     32  C   UNL     1      -3.623  22.305  -1.548  1.00  0.00     0.051 C 
ATOM     33  C   UNL     1      -5.753  24.214  -0.884  1.00  0.00     0.112 C 
ATOM     34  C   UNL     1      -3.973  23.558  -2.374  1.00  0.00     0.089 C 
ATOM     35  N   UNL     1      -5.385  23.964  -2.286  1.00  0.00    -0.302 NA
ATOM     36  C   UNL     1      -6.276  22.986  -2.909  1.00  0.00     0.105 C 
ENDBRANCH  29  30
ENDBRANCH  22  24
ENDBRANCH   9  22
TORSDOF 7
ENDMDL
MODEL 4
REMARK VINA RESULT:      -8.7      2.500      7.522
REMARK SMILES C=CC(=O)N1CC(CCn2c(=O)ccc3cnc(Nc4ccc(C5=CCN(C)CC5)cc4)nc32)C1
REMARK SMILES IDX 10 1 11 2 12 3 13 4 14 5 15 6 16 7 17 8 18 9 33 10 34 11
REMARK SMILES IDX 9 12 8 13 7 14 3 15 4 16 5 17 6 18 35 19 2 20 1 21 19 22
REMARK SMILES IDX 20 24 21 25 32 26 22 27 31 28 23 29 24 30 25 31 30 32 26 33
REMARK SMILES IDX 29 34 27 35 28 36
REMARK H PARENT 19 23
ROOT
ATOM      1  N   UNL     1      -2.982  22.576   2.087  1.00  0.00    -0.293 N 
ATOM      2  C   UNL     1      -3.097  23.897   1.683  1.00  0.00     0.252 A 
ATOM      3  O   UNL     1      -2.399  24.815   2.109  1.00  0.00    -0.269 OA
ATOM      4  C   UNL     1      -4.134  24.206   0.667  1.00  0.00     0.072 A 
ATOM      5  C   UNL     1      -4.949  23.262   0.185  1.00  0.00     0.019 A 
ATOM      6  C   UNL     1      -4.814  21.901   0.674  1.00  0.00     0.036 A 
ATOM      7  C   UNL     1      -5.614  20.864   0.255  1.00  0.00     0.127 A 
ATOM      8  N   UNL     1      -5.496  19.603   0.709  1.00  0.00    -0.221 NA
ATOM      9  C   UNL     1      -4.545  19.357   1.620  1.00  0.00     0.229 A 
ATOM     10  N   UNL     1      -3.717  20.306   2.087  1.00  0.00    -0.194 NA
ATOM     11  C   UNL     1      -3.855  21.560   1.610  1.00  0.00     0.148 A 
ENDROOT
BRANCH   1  12
ATOM     12  C   UNL     1      -1.980  22.228   3.087  1.00  0.00     0.128 C 
BRANCH  12  13
ATOM     13  C   UNL     1      -2.473  22.494   4.511  1.00  0.00     0.029 C 
BRANCH  13  14
ATOM     14  C   UNL     1      -1.343  22.277   5.507  1.00  0.00     0.030 C 
ATOM     15  C   UNL     1       1.662  21.374   6.378  1.00  0.00     0.245 C 
ATOM     16  O   UNL     1       2.428  22.283   6.686  1.00  0.00    -0.270 OA
ATOM     17  N   UNL     1       0.580  21.538   5.556  1.00  0.00    -0.338 N 
ATOM     18  C   UNL     1       0.038  22.806   5.084  1.00  0.00     0.125 C 
ATOM     19  C   UNL     1      -0.714  20.870   5.557  1.00  0.00     0.125 C 
BRANCH  15  20
ATOM     20  C   UNL     1       1.885  20.019   6.945  1.00  0.00     0.063 C 
ATOM     21  C   UNL     1       3.055  19.368   6.900  1.00  0.00     0.014 C 
ENDBRANCH  15  20
ENDBRANCH  13  14
ENDBRANCH  12  13
ENDBRANCH   1  12
BRANCH   9  22
ATOM     22  N   UNL     1      -4.354  18.092   2.165  1.00  0.00    -0.324 N 
ATOM     23  H   UNL     1      -5.239  17.607   2.197  1.00  0.00     0.170 HD
BRANCH  22  24
ATOM     24  C   UNL     1      -3.257  17.431   2.728  1.00  0.00     0.041 A 
ATOM     25  C   UNL     1      -3.103  16.044   2.739  1.00  0.00     0.027 A 
ATOM     26  C   UNL     1      -2.266  18.195   3.361  1.00  0.00     0.027 A 
ATOM     27  C   UNL     1      -1.990  15.439   3.342  1.00  0.00     0.010 A 
ATOM     28  C   UNL     1      -1.152  17.595   3.964  1.00  0.00     0.010 A 
ATOM     29  C   UNL     1      -0.995  16.205   3.956  1.00  0.00    -0.023 A 
BRANCH  29  30
ATOM     30  C   UNL     1       0.165  15.563   4.607  1.00  0.00    -0.042 C 
ATOM     31  C   UNL     1       0.264  14.223   4.718  1.00  0.00    -0.007 C 
ATOM     32  C   UNL     1       1.258  16.449   5.161  1.00  0.00     0.051 C 
ATOM     33  C   UNL     1       1.422  13.526   5.380  1.00  0.00     0.112 C 
ATOM     34  C   UNL     1       2.538  15.661   5.498  1.00  0.00     0.089 C 
ATOM     35  N   UNL     1       2.296  14.386   6.192  1.00  0.00    -0.302 NA
ATOM     36  C   UNL     1       1.755  14.587   7.535  1.00  0.00     0.105 C 
ENDBRANCH  29  30
ENDBRANCH  22  24
ENDBRANCH   9  22
TORSDOF 7
ENDMDL
MODEL 5
REMARK VINA RESULT:      -8.6      1.488      2.024
REMARK SMILES C=CC(=O)N1CC(CCn2c(=O)ccc3cnc(Nc4ccc(C5=CCN(C)CC5)cc4)nc32)C1
REMARK SMILES IDX 10 1 11 2 12 3 13 4 14 5 15 6 16 7 17 8 18 9 33 10 34 11
REMARK SMILES IDX 9 12 8 13 7 14 3 15 4 16 5 17 6 18 35 19 2 20 1 21 19 22
REMARK SMILES IDX 20 24 21 25 32 26 22 27 31 28 23 29 24 30 25 31 30 32 26 33
REMARK SMILES IDX 29 34 27 35 28 36
REMARK H PARENT 19 23
ROOT
ATOM      1  N   UNL     1       1.231  15.833   5.156  1.00  0.00    -0.293 N 
ATOM      2  C   UNL     1       2.317  15.160   5.691  1.00  0.00     0.252 A 
ATOM      3  O   UNL     1       3.292  15.710   6.200  1.00  0.00    -0.269 OA
ATOM      4  C   UNL     1       2.287  13.677   5.640  1.00  0.00     0.072 A 
ATOM      5  C   UNL     1       1.274  13.014   5.072  1.00  0.00     0.019 A 
ATOM      6  C   UNL     1       0.179  13.770   4.489  1.00  0.00     0.036 A 
ATOM      7  C   UNL     1      -0.897  13.183   3.867  1.00  0.00     0.127 A 
ATOM      8  N   UNL     1      -1.910  13.878   3.320  1.00  0.00    -0.221 NA
ATOM      9  C   UNL     1      -1.855  15.215   3.390  1.00  0.00     0.229 A 
ATOM     10  N   UNL     1      -0.844  15.876   3.978  1.00  0.00    -0.194 NA
ATOM     11  C   UNL     1       0.156  15.152   4.522  1.00  0.00     0.148 A 
ENDROOT
BRANCH   1  12
ATOM     12  C   UNL     1       1.221  17.290   5.180  1.00  0.00     0.128 C 
BRANCH  12  13
ATOM     13  C   UNL     1       0.761  17.839   6.532  1.00  0.00     0.029 C 
BRANCH  13  14
ATOM     14  C   UNL     1       1.600  19.048   6.921  1.00  0.00     0.030 C 
ATOM     15  C   UNL     1       3.409  21.683   6.296  1.00  0.00     0.245 C 
ATOM     16  O   UNL     1       2.890  22.765   6.556  1.00  0.00    -0.270 OA
ATOM     17  N   UNL     1       2.699  20.545   6.026  1.00  0.00    -0.338 N 
ATOM     18  C   UNL     1       1.262  20.362   6.196  1.00  0.00     0.125 C 
ATOM     19  C   UNL     1       3.010  19.150   6.306  1.00  0.00     0.125 C 
BRANCH  15  20
ATOM     20  C   UNL     1       4.891  21.573   6.301  1.00  0.00     0.063 C 
ATOM     21  C   UNL     1       5.723  22.615   6.177  1.00  0.00     0.014 C 
ENDBRANCH  15  20
ENDBRANCH  13  14
ENDBRANCH  12  13
ENDBRANCH   1  12
BRANCH   9  22
ATOM     22  N   UNL     1      -2.842  16.025   2.839  1.00  0.00    -0.324 N 
ATOM     23  H   UNL     1      -3.468  15.457   2.287  1.00  0.00     0.170 HD
BRANCH  22  24
ATOM     24  C   UNL     1      -3.074  17.405   2.828  1.00  0.00     0.041 A 
ATOM     25  C   UNL     1      -4.165  18.009   2.200  1.00  0.00     0.027 A 
ATOM     26  C   UNL     1      -2.138  18.247   3.444  1.00  0.00     0.027 A 
ATOM     27  C   UNL     1      -4.329  19.402   2.203  1.00  0.00     0.010 A 
ATOM     28  C   UNL     1      -2.297  19.640   3.450  1.00  0.00     0.010 A 
ATOM     29  C   UNL     1      -3.402  20.238   2.834  1.00  0.00    -0.023 A 
BRANCH  29  30
ATOM     30  C   UNL     1      -3.568  21.705   2.819  1.00  0.00    -0.042 C 
ATOM     31  C   UNL     1      -4.772  22.280   2.629  1.00  0.00    -0.007 C 
ATOM     32  C   UNL     1      -2.342  22.567   3.018  1.00  0.00     0.051 C 
ATOM     33  C   UNL     1      -4.988  23.769   2.596  1.00  0.00     0.112 C 
ATOM     34  C   UNL     1      -2.700  24.036   3.313  1.00  0.00     0.089 C 
ATOM     35  N   UNL     1      -3.769  24.581   2.460  1.00  0.00    -0.302 NA
ATOM     36  C   UNL     1      -3.351  24.692   1.063  1.00  0.00     0.105 C 
ENDBRANCH  29  30
ENDBRANCH  22  24
ENDBRANCH   9  22
TORSDOF 7
ENDMDL
MODEL 6
REMARK VINA RESULT:      -8.6      2.071      2.803
REMARK SMILES C=CC(=O)N1CC(CCn2c(=O)ccc3cnc(Nc4ccc(C5=CCN(C)CC5)cc4)nc32)C1
REMARK SMILES IDX 10 1 11 2 12 3 13 4 14 5 15 6 16 7 17 8 18 9 33 10 34 11
REMARK SMILES IDX 9 12 8 13 7 14 3 15 4 16 5 17 6 18 35 19 2 20 1 21 19 22
REMARK SMILES IDX 20 24 21 25 32 26 22 27 31 28 23 29 24 30 25 31 30 32 26 33
REMARK SMILES IDX 29 34 27 35 28 36
REMARK H PARENT 19 23
ROOT
ATOM      1  N   UNL     1       0.299  14.428   4.371  1.00  0.00    -0.293 N 
ATOM      2  C   UNL     1       0.411  13.047   4.324  1.00  0.00     0.252 A 
ATOM      3  O   UNL     1       1.414  12.420   4.658  1.00  0.00    -0.269 OA
ATOM      4  C   UNL     1      -0.771  12.289   3.839  1.00  0.00     0.072 A 
ATOM      5  C   UNL     1      -1.883  12.908   3.430  1.00  0.00     0.019 A 
ATOM      6  C   UNL     1      -1.931  14.360   3.460  1.00  0.00     0.036 A 
ATOM      7  C   UNL     1      -3.020  15.088   3.044  1.00  0.00     0.127 A 
ATOM      8  N   UNL     1      -3.067  16.433   3.065  1.00  0.00    -0.221 NA
ATOM      9  C   UNL     1      -1.987  17.085   3.516  1.00  0.00     0.229 A 
ATOM     10  N   UNL     1      -0.878  16.458   3.943  1.00  0.00    -0.194 NA
ATOM     11  C   UNL     1      -0.862  15.109   3.915  1.00  0.00     0.148 A 
ENDROOT
BRANCH   1  12
ATOM     12  C   UNL     1       1.437  15.212   4.836  1.00  0.00     0.128 C 
BRANCH  12  13
ATOM     13  C   UNL     1       1.659  15.063   6.343  1.00  0.00     0.029 C 
BRANCH  13  14
ATOM     14  C   UNL     1       1.898  16.426   6.976  1.00  0.00     0.030 C 
ATOM     15  C   UNL     1       3.453  19.267   7.316  1.00  0.00     0.245 C 
ATOM     16  O   UNL     1       2.840  20.263   6.941  1.00  0.00    -0.270 OA
ATOM     17  N   UNL     1       3.215  18.006   6.842  1.00  0.00    -0.338 N 
ATOM     18  C   UNL     1       2.099  17.596   5.997  1.00  0.00     0.125 C 
ATOM     19  C   UNL     1       3.316  16.713   7.506  1.00  0.00     0.125 C 
BRANCH  15  20
ATOM     20  C   UNL     1       4.493  19.412   8.367  1.00  0.00     0.063 C 
ATOM     21  C   UNL     1       5.175  20.541   8.599  1.00  0.00     0.014 C 
ENDBRANCH  15  20
ENDBRANCH  13  14
ENDBRANCH  12  13
ENDBRANCH   1  12
BRANCH   9  22
ATOM     22  N   UNL     1      -1.928  18.474   3.559  1.00  0.00    -0.324 N 
ATOM     23  H   UNL     1      -1.078  18.756   4.027  1.00  0.00     0.170 HD
BRANCH  22  24
ATOM     24  C   UNL     1      -2.805  19.497   3.182  1.00  0.00     0.041 A 
ATOM     25  C   UNL     1      -3.751  19.379   2.162  1.00  0.00     0.027 A 
ATOM     26  C   UNL     1      -2.709  20.736   3.832  1.00  0.00     0.027 A 
ATOM     27  C   UNL     1      -4.586  20.451   1.815  1.00  0.00     0.010 A 
ATOM     28  C   UNL     1      -3.542  21.810   3.488  1.00  0.00     0.010 A 
ATOM     29  C   UNL     1      -4.500  21.679   2.477  1.00  0.00    -0.023 A 
BRANCH  29  30
ATOM     30  C   UNL     1      -5.368  22.811   2.095  1.00  0.00    -0.042 C 
ATOM     31  C   UNL     1      -6.330  23.274   2.917  1.00  0.00    -0.007 C 
ATOM     32  C   UNL     1      -5.159  23.450   0.741  1.00  0.00     0.051 C 
ATOM     33  C   UNL     1      -7.244  24.418   2.568  1.00  0.00     0.112 C 
ATOM     34  C   UNL     1      -5.884  24.803   0.613  1.00  0.00     0.089 C 
ATOM     35  N   UNL     1      -7.255  24.807   1.149  1.00  0.00    -0.302 NA
ATOM     36  C   UNL     1      -8.152  23.958   0.366  1.00  0.00     0.105 C 
ENDBRANCH  29  30
ENDBRANCH  22  24
ENDBRANCH   9  22
TORSDOF 7
ENDMDL
MODEL 7
REMARK VINA RESULT:      -8.6      2.333      6.001
REMARK SMILES C=CC(=O)N1CC(CCn2c(=O)ccc3cnc(Nc4ccc(C5=CCN(C)CC5)cc4)nc32)C1
REMARK SMILES IDX 10 1 11 2 12 3 13 4 14 5 15 6 16 7 17 8 18 9 33 10 34 11
REMARK SMILES IDX 9 12 8 13 7 14 3 15 4 16 5 17 6 18 35 19 2 20 1 21 19 22
REMARK SMILES IDX 20 24 21 25 32 26 22 27 31 28 23 29 24 30 25 31 30 32 26 33
REMARK SMILES IDX 29 34 27 35 28 36
REMARK H PARENT 19 23
ROOT
ATOM      1  N   UNL     1       3.417  17.048   6.570  1.00  0.00    -0.293 N 
ATOM      2  C   UNL     1       4.607  17.089   7.279  1.00  0.00     0.252 A 
ATOM      3  O   UNL     1       5.388  16.145   7.381  1.00  0.00    -0.269 OA
ATOM      4  C   UNL     1       4.948  18.367   7.955  1.00  0.00     0.072 A 
ATOM      5  C   UNL     1       4.130  19.423   7.914  1.00  0.00     0.019 A 
ATOM      6  C   UNL     1       2.875  19.312   7.191  1.00  0.00     0.036 A 
ATOM      7  C   UNL     1       1.959  20.334   7.105  1.00  0.00     0.127 A 
ATOM      8  N   UNL     1       0.793  20.235   6.441  1.00  0.00    -0.221 NA
ATOM      9  C   UNL     1       0.521  19.070   5.836  1.00  0.00     0.229 A 
ATOM     10  N   UNL     1       1.354  18.018   5.865  1.00  0.00    -0.194 NA
ATOM     11  C   UNL     1       2.519  18.149   6.535  1.00  0.00     0.148 A 
ENDROOT
BRANCH   1  12
ATOM     12  C   UNL     1       3.041  15.812   5.895  1.00  0.00     0.128 C 
BRANCH  12  13
ATOM     13  C   UNL     1       2.458  14.783   6.866  1.00  0.00     0.029 C 
BRANCH  13  14
ATOM     14  C   UNL     1       1.186  14.178   6.288  1.00  0.00     0.030 C 
ATOM     15  C   UNL     1      -0.830  13.355   3.867  1.00  0.00     0.245 C 
ATOM     16  O   UNL     1      -0.914  12.154   3.623  1.00  0.00    -0.270 OA
ATOM     17  N   UNL     1       0.256  13.934   4.465  1.00  0.00    -0.338 N 
ATOM     18  C   UNL     1       1.375  13.235   5.087  1.00  0.00     0.125 C 
ATOM     19  C   UNL     1       0.339  15.076   5.365  1.00  0.00     0.125 C 
BRANCH  15  20
ATOM     20  C   UNL     1      -1.974  14.242   3.532  1.00  0.00     0.063 C 
ATOM     21  C   UNL     1      -3.034  13.861   2.807  1.00  0.00     0.014 C 
ENDBRANCH  15  20
ENDBRANCH  13  14
ENDBRANCH  12  13
ENDBRANCH   1  12
BRANCH   9  22
ATOM     22  N   UNL     1      -0.665  18.860   5.141  1.00  0.00    -0.324 N 
ATOM     23  H   UNL     1      -0.859  17.869   5.106  1.00  0.00     0.170 HD
BRANCH  22  24
ATOM     24  C   UNL     1      -1.545  19.694   4.444  1.00  0.00     0.041 A 
ATOM     25  C   UNL     1      -1.914  20.972   4.871  1.00  0.00     0.027 A 
ATOM     26  C   UNL     1      -2.134  19.214   3.266  1.00  0.00     0.027 A 
ATOM     27  C   UNL     1      -2.822  21.751   4.139  1.00  0.00     0.010 A 
ATOM     28  C   UNL     1      -3.042  19.990   2.531  1.00  0.00     0.010 A 
ATOM     29  C   UNL     1      -3.393  21.276   2.955  1.00  0.00    -0.023 A 
BRANCH  29  30
ATOM     30  C   UNL     1      -4.363  22.092   2.198  1.00  0.00    -0.042 C 
ATOM     31  C   UNL     1      -5.458  22.616   2.784  1.00  0.00    -0.007 C 
ATOM     32  C   UNL     1      -4.107  22.329   0.727  1.00  0.00     0.051 C 
ATOM     33  C   UNL     1      -6.478  23.446   2.051  1.00  0.00     0.112 C 
ATOM     34  C   UNL     1      -4.992  23.451   0.151  1.00  0.00     0.089 C 
ATOM     35  N   UNL     1      -6.398  23.394   0.583  1.00  0.00    -0.302 NA
ATOM     36  C   UNL     1      -7.088  22.220   0.049  1.00  0.00     0.105 C 
ENDBRANCH  29  30
ENDBRANCH  22  24
ENDBRANCH   9  22
TORSDOF 7
ENDMDL
MODEL 8
REMARK VINA RESULT:      -8.4      2.200      6.211
REMARK SMILES C=CC(=O)N1CC(CCn2c(=O)ccc3cnc(Nc4ccc(C5=CCN(C)CC5)cc4)nc32)C1
REMARK SMILES IDX 10 1 11 2 12 3 13 4 14 5 15 6 16 7 17 8 18 9 33 10 34 11
REMARK SMILES IDX 9 12 8 13 7 14 3 15 4 16 5 17 6 18 35 19 2 20 1 21 19 22
REMARK SMILES IDX 20 24 21 25 32 26 22 27 31 28 23 29 24 30 25 31 30 32 26 33
REMARK SMILES IDX 29 34 27 35 28 36
REMARK H PARENT 19 23
ROOT
ATOM      1  N   UNL     1       2.790  16.818   6.438  1.00  0.00    -0.293 N 
ATOM      2  C   UNL     1       3.802  15.922   6.744  1.00  0.00     0.252 A 
ATOM      3  O   UNL     1       3.766  14.720   6.489  1.00  0.00    -0.269 OA
ATOM      4  C   UNL     1       5.004  16.466   7.425  1.00  0.00     0.072 A 
ATOM      5  C   UNL     1       5.097  17.757   7.762  1.00  0.00     0.019 A 
ATOM      6  C   UNL     1       3.989  18.644   7.454  1.00  0.00     0.036 A 
ATOM      7  C   UNL     1       3.980  19.981   7.776  1.00  0.00     0.127 A 
ATOM      8  N   UNL     1       2.954  20.806   7.498  1.00  0.00    -0.221 NA
ATOM      9  C   UNL     1       1.888  20.284   6.877  1.00  0.00     0.229 A 
ATOM     10  N   UNL     1       1.807  18.990   6.524  1.00  0.00    -0.194 NA
ATOM     11  C   UNL     1       2.854  18.188   6.811  1.00  0.00     0.148 A 
ENDROOT
BRANCH   1  12
ATOM     12  C   UNL     1       1.589  16.326   5.775  1.00  0.00     0.128 C 
BRANCH  12  13
ATOM     13  C   UNL     1       0.623  15.660   6.757  1.00  0.00     0.029 C 
BRANCH  13  14
ATOM     14  C   UNL     1      -0.573  15.086   6.010  1.00  0.00     0.030 C 
ATOM     15  C   UNL     1      -2.316  14.421   3.341  1.00  0.00     0.245 C 
ATOM     16  O   UNL     1      -2.354  13.241   3.004  1.00  0.00    -0.270 OA
ATOM     17  N   UNL     1      -1.308  14.966   4.088  1.00  0.00    -0.338 N 
ATOM     18  C   UNL     1      -0.246  14.236   4.769  1.00  0.00     0.125 C 
ATOM     19  C   UNL     1      -1.337  16.041   5.071  1.00  0.00     0.125 C 
BRANCH  15  20
ATOM     20  C   UNL     1      -3.436  15.319   2.954  1.00  0.00     0.063 C 
ATOM     21  C   UNL     1      -3.283  16.600   2.594  1.00  0.00     0.014 C 
ENDBRANCH  15  20
ENDBRANCH  13  14
ENDBRANCH  12  13
ENDBRANCH   1  12
BRANCH   9  22
ATOM     22  N   UNL     1       0.768  21.047   6.563  1.00  0.00    -0.324 N 
ATOM     23  H   UNL     1       0.550  21.652   7.342  1.00  0.00     0.170 HD
BRANCH  22  24
ATOM     24  C   UNL     1      -0.115  21.078   5.479  1.00  0.00     0.041 A 
ATOM     25  C   UNL     1      -0.314  22.194   4.664  1.00  0.00     0.027 A 
ATOM     26  C   UNL     1      -0.886  19.938   5.209  1.00  0.00     0.027 A 
ATOM     27  C   UNL     1      -1.234  22.170   3.605  1.00  0.00     0.010 A 
ATOM     28  C   UNL     1      -1.806  19.909   4.152  1.00  0.00     0.010 A 
ATOM     29  C   UNL     1      -1.988  21.026   3.329  1.00  0.00    -0.023 A 
BRANCH  29  30
ATOM     30  C   UNL     1      -2.969  21.010   2.226  1.00  0.00    -0.042 C 
ATOM     31  C   UNL     1      -2.803  21.762   1.119  1.00  0.00    -0.007 C 
ATOM     32  C   UNL     1      -4.188  20.126   2.362  1.00  0.00     0.051 C 
ATOM     33  C   UNL     1      -3.780  21.786  -0.026  1.00  0.00     0.112 C 
ATOM     34  C   UNL     1      -4.937  19.950   1.027  1.00  0.00     0.089 C 
ATOM     35  N   UNL     1      -5.096  21.193   0.255  1.00  0.00    -0.302 NA
ATOM     36  C   UNL     1      -5.982  22.144   0.925  1.00  0.00     0.105 C 
ENDBRANCH  29  30
ENDBRANCH  22  24
ENDBRANCH   9  22
TORSDOF 7
ENDMDL
MODEL 9
REMARK VINA RESULT:      -8.3      2.440      7.070
REMARK SMILES C=CC(=O)N1CC(CCn2c(=O)ccc3cnc(Nc4ccc(C5=CCN(C)CC5)cc4)nc32)C1
REMARK SMILES IDX 10 1 11 2 12 3 13 4 14 5 15 6 16 7 17 8 18 9 33 10 34 11
REMARK SMILES IDX 9 12 8 13 7 14 3 15 4 16 5 17 6 18 35 19 2 20 1 21 19 22
REMARK SMILES IDX 20 24 21 25 32 26 22 27 31 28 23 29 24 30 25 31 30 32 26 33
REMARK SMILES IDX 29 34 27 35 28 36
REMARK H PARENT 19 23
ROOT
ATOM      1  N   UNL     1      -1.414  15.865   3.505  1.00  0.00    -0.293 N 
ATOM      2  C   UNL     1      -2.636  15.620   2.900  1.00  0.00     0.252 A 
ATOM      3  O   UNL     1      -3.364  16.491   2.428  1.00  0.00    -0.269 OA
ATOM      4  C   UNL     1      -3.082  14.205   2.823  1.00  0.00     0.072 A 
ATOM      5  C   UNL     1      -2.356  13.211   3.345  1.00  0.00     0.019 A 
ATOM      6  C   UNL     1      -1.102  13.528   4.006  1.00  0.00     0.036 A 
ATOM      7  C   UNL     1      -0.295  12.581   4.589  1.00  0.00     0.127 A 
ATOM      8  N   UNL     1       0.865  12.870   5.207  1.00  0.00    -0.221 NA
ATOM      9  C   UNL     1       1.241  14.156   5.251  1.00  0.00     0.229 A 
ATOM     10  N   UNL     1       0.517  15.149   4.710  1.00  0.00    -0.194 NA
ATOM     11  C   UNL     1      -0.639  14.828   4.092  1.00  0.00     0.148 A 
ENDROOT
BRANCH   1  12
ATOM     12  C   UNL     1      -0.940  17.239   3.607  1.00  0.00     0.128 C 
BRANCH  12  13
ATOM     13  C   UNL     1      -1.936  18.137   4.345  1.00  0.00     0.029 C 
BRANCH  13  14
ATOM     14  C   UNL     1      -1.969  19.519   3.709  1.00  0.00     0.030 C 
ATOM     15  C   UNL     1      -3.211  22.489   3.216  1.00  0.00     0.245 C 
ATOM     16  O   UNL     1      -2.569  23.424   3.685  1.00  0.00    -0.270 OA
ATOM     17  N   UNL     1      -3.150  21.209   3.696  1.00  0.00    -0.338 N 
ATOM     18  C   UNL     1      -2.195  20.697   4.673  1.00  0.00     0.125 C 
ATOM     19  C   UNL     1      -3.274  19.934   3.002  1.00  0.00     0.125 C 
BRANCH  15  20
ATOM     20  C   UNL     1      -4.086  22.731   2.040  1.00  0.00     0.063 C 
ATOM     21  C   UNL     1      -5.272  23.353   2.099  1.00  0.00     0.014 C 
ENDBRANCH  15  20
ENDBRANCH  13  14
ENDBRANCH  12  13
ENDBRANCH   1  12
BRANCH   9  22
ATOM     22  N   UNL     1       2.412  14.561   5.883  1.00  0.00    -0.324 N 
ATOM     23  H   UNL     1       2.915  13.746   6.204  1.00  0.00     0.170 HD
BRANCH  22  24
ATOM     24  C   UNL     1       2.955  15.806   6.219  1.00  0.00     0.041 A 
ATOM     25  C   UNL     1       4.324  16.058   6.326  1.00  0.00     0.027 A 
ATOM     26  C   UNL     1       2.080  16.862   6.511  1.00  0.00     0.027 A 
ATOM     27  C   UNL     1       4.805  17.324   6.691  1.00  0.00     0.010 A 
ATOM     28  C   UNL     1       2.557  18.129   6.876  1.00  0.00     0.010 A 
ATOM     29  C   UNL     1       3.930  18.380   6.964  1.00  0.00    -0.023 A 
BRANCH  29  30
ATOM     30  C   UNL     1       4.441  19.705   7.367  1.00  0.00    -0.042 C 
ATOM     31  C   UNL     1       4.149  20.820   6.667  1.00  0.00    -0.007 C 
ATOM     32  C   UNL     1       5.317  19.793   8.596  1.00  0.00     0.051 C 
ATOM     33  C   UNL     1       4.654  22.189   7.034  1.00  0.00     0.112 C 
ATOM     34  C   UNL     1       5.495  21.243   9.087  1.00  0.00     0.089 C 
ATOM     35  N   UNL     1       5.751  22.217   8.014  1.00  0.00    -0.302 NA
ATOM     36  C   UNL     1       7.048  21.999   7.374  1.00  0.00     0.105 C 
ENDBRANCH  29  30
ENDBRANCH  22  24
ENDBRANCH   9  22
TORSDOF 7
ENDMDL
