MODEL 1
REMARK VINA RESULT:      -9.2      0.000      0.000
REMARK SMILES C=CC(=O)N1CC(CCn2c(=O)ccc3cnc(Nc4ccc(C5CCN(C)CC5)cc4)nc32)C1
REMARK SMILES IDX 10 1 11 2 12 3 13 4 14 5 15 6 16 7 17 8 18 9 33 10 34 11
REMARK SMILES IDX 9 12 8 13 7 14 3 15 4 16 5 17 6 18 35 19 2 20 1 21 19 22
REMARK SMILES IDX 20 24 21 25 32 26 22 27 31 28 23 29 24 30 25 31 30 32 26 33
REMARK SMILES IDX 29 34 27 35 28 36
REMARK H PARENT 19 23
ROOT
ATOM      1  N   UNL     1       0.175  14.067   4.225  1.00  0.00    -0.293 N 
ATOM      2  C   UNL     1       0.576  12.761   4.457  1.00  0.00     0.252 A 
ATOM      3  O   UNL     1       1.691  12.437   4.860  1.00  0.00    -0.269 OA
ATOM      4  C   UNL     1      -0.414  11.688   4.186  1.00  0.00     0.072 A 
ATOM      5  C   UNL     1      -1.633  11.961   3.710  1.00  0.00     0.019 A 
ATOM      6  C   UNL     1      -1.995  13.345   3.458  1.00  0.00     0.036 A 
ATOM      7  C   UNL     1      -3.214  13.729   2.954  1.00  0.00     0.127 A 
ATOM      8  N   UNL     1      -3.554  15.010   2.715  1.00  0.00    -0.221 NA
ATOM      9  C   UNL     1      -2.646  15.952   2.996  1.00  0.00     0.229 A 
ATOM     10  N   UNL     1      -1.431  15.674   3.496  1.00  0.00    -0.194 NA
ATOM     11  C   UNL     1      -1.116  14.380   3.716  1.00  0.00     0.148 A 
ENDROOT
BRANCH   1  12
ATOM     12  C   UNL     1       1.111  15.160   4.481  1.00  0.00     0.128 C 
BRANCH  12  13
ATOM     13  C   UNL     1       1.005  15.749   5.892  1.00  0.00     0.029 C 
BRANCH  13  14
ATOM     14  C   UNL     1       1.908  15.028   6.898  1.00  0.00     0.030 C 
ATOM     15  C   UNL     1       4.552  16.942   6.949  1.00  0.00     0.245 C 
ATOM     16  O   UNL     1       5.157  17.033   5.884  1.00  0.00    -0.270 OA
ATOM     17  N   UNL     1       3.756  15.879   7.284  1.00  0.00    -0.338 N 
ATOM     18  C   UNL     1       3.344  14.802   6.392  1.00  0.00     0.125 C 
ATOM     19  C   UNL     1       2.510  15.866   8.043  1.00  0.00     0.125 C 
BRANCH  15  20
ATOM     20  C   UNL     1       4.653  18.047   7.936  1.00  0.00     0.063 C 
ATOM     21  C   UNL     1       3.984  19.202   7.829  1.00  0.00     0.014 C 
ENDBRANCH  15  20
ENDBRANCH  13  14
ENDBRANCH  12  13
ENDBRANCH   1  12
BRANCH   9  22
ATOM     22  N   UNL     1      -2.893  17.306   2.791  1.00  0.00    -0.324 N 
ATOM     23  H   UNL     1      -3.669  17.404   2.153  1.00  0.00     0.170 HD
BRANCH  22  24
ATOM     24  C   UNL     1      -2.407  18.483   3.369  1.00  0.00     0.041 A 
ATOM     25  C   UNL     1      -1.545  18.380   4.472  1.00  0.00     0.026 A 
ATOM     26  C   UNL     1      -2.746  19.766   2.937  1.00  0.00     0.026 A 
ATOM     27  C   UNL     1      -1.022  19.516   5.101  1.00  0.00     0.006 A 
ATOM     28  C   UNL     1      -2.226  20.907   3.563  1.00  0.00     0.006 A 
ATOM     29  C   UNL     1      -1.350  20.798   4.650  1.00  0.00    -0.045 A 
BRANCH  29  30
ATOM     30  C   UNL     1      -0.759  22.018   5.333  1.00  0.00     0.022 C 
ATOM     31  C   UNL     1       0.552  21.712   6.085  1.00  0.00     0.024 C 
ATOM     32  C   UNL     1      -0.604  23.200   4.362  1.00  0.00     0.024 C 
ATOM     33  C   UNL     1       1.780  22.285   5.377  1.00  0.00     0.085 C 
ATOM     34  C   UNL     1       0.340  24.243   4.954  1.00  0.00     0.085 C 
ATOM     35  N   UNL     1       1.706  23.727   5.116  1.00  0.00    -0.306 NA
ATOM     36  C   UNL     1       2.442  24.507   6.107  1.00  0.00     0.105 C 
ENDBRANCH  29  30
ENDBRANCH  22  24
ENDBRANCH   9  22
TORSDOF 7
ENDMDL
MODEL 2
REMARK VINA RESULT:      -9.1      1.450      2.073
REMARK SMILES C=CC(=O)N1CC(CCn2c(=O)ccc3cnc(Nc4ccc(C5CCN(C)CC5)cc4)nc32)C1
REMARK SMILES IDX 10 1 11 2 12 3 13 4 14 5 15 6 16 7 17 8 18 9 33 10 34 11
REMARK SMILES IDX 9 12 8 13 7 14 3 15 4 16 5 17 6 18 35 19 2 20 1 21 19 22
REMARK SMILES IDX 20 24 21 25 32 26 22 27 31 28 23 29 24 30 25 31 30 32 26 33
REMARK SMILES IDX 29 34 27 35 28 36
REMARK H PARENT 19 23
ROOT
ATOM      1  N   UNL     1       0.222  14.508   4.453  1.00  0.00    -0.293 N 
ATOM      2  C   UNL     1       1.008  13.449   4.879  1.00  0.00     0.252 A 
ATOM      3  O   UNL     1       2.142  13.565   5.338  1.00  0.00    -0.269 OA
ATOM      4  C   UNL     1       0.433  12.085   4.756  1.00  0.00     0.072 A 
ATOM      5  C   UNL     1      -0.779  11.878   4.231  1.00  0.00     0.019 A 
ATOM      6  C   UNL     1      -1.551  13.020   3.775  1.00  0.00     0.036 A 
ATOM      7  C   UNL     1      -2.797  12.912   3.205  1.00  0.00     0.127 A 
ATOM      8  N   UNL     1      -3.516  13.967   2.778  1.00  0.00    -0.221 NA
ATOM      9  C   UNL     1      -2.978  15.184   2.928  1.00  0.00     0.229 A 
ATOM     10  N   UNL     1      -1.770  15.387   3.477  1.00  0.00    -0.194 NA
ATOM     11  C   UNL     1      -1.069  14.311   3.889  1.00  0.00     0.148 A 
ENDROOT
BRANCH   1  12
ATOM     12  C   UNL     1       0.739  15.872   4.557  1.00  0.00     0.128 C 
BRANCH  12  13
ATOM     13  C   UNL     1       0.448  16.543   5.904  1.00  0.00     0.029 C 
BRANCH  13  14
ATOM     14  C   UNL     1       1.390  17.717   6.189  1.00  0.00     0.030 C 
ATOM     15  C   UNL     1       4.279  16.227   6.496  1.00  0.00     0.245 C 
ATOM     16  O   UNL     1       4.365  15.429   7.426  1.00  0.00    -0.270 OA
ATOM     17  N   UNL     1       3.394  17.271   6.467  1.00  0.00    -0.338 N 
ATOM     18  C   UNL     1       2.303  17.498   7.409  1.00  0.00     0.125 C 
ATOM     19  C   UNL     1       2.667  17.831   5.332  1.00  0.00     0.125 C 
BRANCH  15  20
ATOM     20  C   UNL     1       5.158  16.054   5.311  1.00  0.00     0.063 C 
ATOM     21  C   UNL     1       6.307  15.366   5.333  1.00  0.00     0.014 C 
ENDBRANCH  15  20
ENDBRANCH  13  14
ENDBRANCH  12  13
ENDBRANCH   1  12
BRANCH   9  22
ATOM     22  N   UNL     1      -3.636  16.341   2.524  1.00  0.00    -0.324 N 
ATOM     23  H   UNL     1      -4.524  16.088   2.118  1.00  0.00     0.170 HD
BRANCH  22  24
ATOM     24  C   UNL     1      -3.391  17.708   2.690  1.00  0.00     0.041 A 
ATOM     25  C   UNL     1      -2.263  18.101   3.426  1.00  0.00     0.026 A 
ATOM     26  C   UNL     1      -4.216  18.718   2.192  1.00  0.00     0.026 A 
ATOM     27  C   UNL     1      -1.957  19.452   3.634  1.00  0.00     0.006 A 
ATOM     28  C   UNL     1      -3.916  20.072   2.397  1.00  0.00     0.006 A 
ATOM     29  C   UNL     1      -2.778  20.458   3.115  1.00  0.00    -0.045 A 
BRANCH  29  30
ATOM     30  C   UNL     1      -2.421  21.917   3.334  1.00  0.00     0.022 C 
ATOM     31  C   UNL     1      -2.193  22.266   4.819  1.00  0.00     0.024 C 
ATOM     32  C   UNL     1      -1.243  22.358   2.450  1.00  0.00     0.024 C 
ATOM     33  C   UNL     1      -0.718  22.502   5.143  1.00  0.00     0.085 C 
ATOM     34  C   UNL     1      -0.661  23.669   2.971  1.00  0.00     0.085 C 
ATOM     35  N   UNL     1      -0.074  23.523   4.309  1.00  0.00    -0.306 NA
ATOM     36  C   UNL     1       0.010  24.816   4.984  1.00  0.00     0.105 C 
ENDBRANCH  29  30
ENDBRANCH  22  24
ENDBRANCH   9  22
TORSDOF 7
ENDMDL
MODEL 3
REMARK VINA RESULT:      -8.8      3.142      4.386
REMARK SMILES C=CC(=O)N1CC(CCn2c(=O)ccc3cnc(Nc4ccc(C5CCN(C)CC5)cc4)nc32)C1
REMARK SMILES IDX 10 1 11 2 12 3 13 4 14 5 15 6 16 7 17 8 18 9 33 10 34 11
REMARK SMILES IDX 9 12 8 13 7 14 3 15 4 16 5 17 6 18 35 19 2 20 1 21 19 22
REMARK SMILES IDX 20 24 21 25 32 26 22 27 31 28 23 29 24 30 25 31 30 32 26 33
REMARK SMILES IDX 29 34 27 35 28 36
REMARK H PARENT 19 23
ROOT
ATOM      1  N   UNL     1       0.388  14.739   4.358  1.00  0.00    -0.293 N 
ATOM      2  C   UNL     1       0.609  13.371   4.372  1.00  0.00     0.252 A 
ATOM      3  O   UNL     1       1.668  12.841   4.698  1.00  0.00    -0.269 OA
ATOM      4  C   UNL     1      -0.516  12.498   3.949  1.00  0.00     0.072 A 
ATOM      5  C   UNL     1      -1.685  13.005   3.543  1.00  0.00     0.019 A 
ATOM      6  C   UNL     1      -1.856  14.447   3.523  1.00  0.00     0.036 A 
ATOM      7  C   UNL     1      -3.010  15.066   3.107  1.00  0.00     0.127 A 
ATOM      8  N   UNL     1      -3.173  16.403   3.082  1.00  0.00    -0.221 NA
ATOM      9  C   UNL     1      -2.147  17.158   3.495  1.00  0.00     0.229 A 
ATOM     10  N   UNL     1      -0.984  16.643   3.923  1.00  0.00    -0.194 NA
ATOM     11  C   UNL     1      -0.846  15.300   3.928  1.00  0.00     0.148 A 
ENDROOT
BRANCH   1  12
ATOM     12  C   UNL     1       1.461  15.643   4.770  1.00  0.00     0.128 C 
BRANCH  12  13
ATOM     13  C   UNL     1       2.024  15.341   6.164  1.00  0.00     0.029 C 
BRANCH  13  14
ATOM     14  C   UNL     1       3.554  15.281   6.178  1.00  0.00     0.030 C 
ATOM     15  C   UNL     1       4.356  18.325   7.045  1.00  0.00     0.245 C 
ATOM     16  O   UNL     1       4.012  19.205   6.260  1.00  0.00    -0.270 OA
ATOM     17  N   UNL     1       4.560  17.020   6.686  1.00  0.00    -0.338 N 
ATOM     18  C   UNL     1       4.227  16.424   5.396  1.00  0.00     0.125 C 
ATOM     19  C   UNL     1       4.275  15.802   7.438  1.00  0.00     0.125 C 
BRANCH  15  20
ATOM     20  C   UNL     1       4.543  18.667   8.479  1.00  0.00     0.063 C 
ATOM     21  C   UNL     1       5.304  19.682   8.907  1.00  0.00     0.014 C 
ENDBRANCH  15  20
ENDBRANCH  13  14
ENDBRANCH  12  13
ENDBRANCH   1  12
BRANCH   9  22
ATOM     22  N   UNL     1      -2.210  18.547   3.514  1.00  0.00    -0.324 N 
ATOM     23  H   UNL     1      -1.633  18.891   4.268  1.00  0.00     0.170 HD
BRANCH  22  24
ATOM     24  C   UNL     1      -2.761  19.509   2.661  1.00  0.00     0.041 A 
ATOM     25  C   UNL     1      -1.967  20.604   2.286  1.00  0.00     0.026 A 
ATOM     26  C   UNL     1      -4.069  19.469   2.176  1.00  0.00     0.026 A 
ATOM     27  C   UNL     1      -2.454  21.605   1.437  1.00  0.00     0.006 A 
ATOM     28  C   UNL     1      -4.562  20.468   1.326  1.00  0.00     0.006 A 
ATOM     29  C   UNL     1      -3.759  21.547   0.938  1.00  0.00    -0.045 A 
BRANCH  29  30
ATOM     30  C   UNL     1      -4.264  22.632   0.004  1.00  0.00     0.022 C 
ATOM     31  C   UNL     1      -3.128  23.369  -0.734  1.00  0.00     0.024 C 
ATOM     32  C   UNL     1      -5.332  22.102  -0.965  1.00  0.00     0.024 C 
ATOM     33  C   UNL     1      -3.054  22.996  -2.215  1.00  0.00     0.085 C 
ATOM     34  C   UNL     1      -5.518  23.078  -2.124  1.00  0.00     0.085 C 
ATOM     35  N   UNL     1      -4.309  23.196  -2.949  1.00  0.00    -0.306 NA
ATOM     36  C   UNL     1      -4.315  24.448  -3.702  1.00  0.00     0.105 C 
ENDBRANCH  29  30
ENDBRANCH  22  24
ENDBRANCH   9  22
TORSDOF 7
ENDMDL
MODEL 4
REMARK VINA RESULT:      -8.8      3.410      4.762
REMARK SMILES C=CC(=O)N1CC(CCn2c(=O)ccc3cnc(Nc4ccc(C5CCN(C)CC5)cc4)nc32)C1
REMARK SMILES IDX 10 1 11 2 12 3 13 4 14 5 15 6 16 7 17 8 18 9 33 10 34 11
REMARK SMILES IDX 9 12 8 13 7 14 3 15 4 16 5 17 6 18 35 19 2 20 1 21 19 22
REMARK SMILES IDX 20 24 21 25 32 26 22 27 31 28 23 29 24 30 25 31 30 32 26 33
REMARK SMILES IDX 29 34 27 35 28 36
REMARK H PARENT 19 23
ROOT
ATOM      1  N   UNL     1       0.031  15.585   5.934  1.00  0.00    -0.293 N 
ATOM      2  C   UNL     1       0.493  14.288   6.089  1.00  0.00     0.252 A 
ATOM      3  O   UNL     1       1.318  13.939   6.930  1.00  0.00    -0.269 OA
ATOM      4  C   UNL     1      -0.045  13.261   5.161  1.00  0.00     0.072 A 
ATOM      5  C   UNL     1      -0.917  13.573   4.196  1.00  0.00     0.019 A 
ATOM      6  C   UNL     1      -1.349  14.952   4.059  1.00  0.00     0.036 A 
ATOM      7  C   UNL     1      -2.226  15.378   3.091  1.00  0.00     0.127 A 
ATOM      8  N   UNL     1      -2.627  16.657   2.957  1.00  0.00    -0.221 NA
ATOM      9  C   UNL     1      -2.142  17.551   3.827  1.00  0.00     0.229 A 
ATOM     10  N   UNL     1      -1.285  17.227   4.808  1.00  0.00    -0.194 NA
ATOM     11  C   UNL     1      -0.894  15.940   4.913  1.00  0.00     0.148 A 
ENDROOT
BRANCH   1  12
ATOM     12  C   UNL     1       0.526  16.633   6.825  1.00  0.00     0.128 C 
BRANCH  12  13
ATOM     13  C   UNL     1       2.032  16.555   7.096  1.00  0.00     0.029 C 
BRANCH  13  14
ATOM     14  C   UNL     1       2.854  17.346   6.074  1.00  0.00     0.030 C 
ATOM     15  C   UNL     1       5.836  16.070   6.449  1.00  0.00     0.245 C 
ATOM     16  O   UNL     1       6.342  16.229   7.556  1.00  0.00    -0.270 OA
ATOM     17  N   UNL     1       4.869  16.888   5.928  1.00  0.00    -0.338 N 
ATOM     18  C   UNL     1       4.155  17.937   6.647  1.00  0.00     0.125 C 
ATOM     19  C   UNL     1       3.727  16.544   5.088  1.00  0.00     0.125 C 
BRANCH  15  20
ATOM     20  C   UNL     1       6.263  14.915   5.617  1.00  0.00     0.063 C 
ATOM     21  C   UNL     1       7.088  15.020   4.568  1.00  0.00     0.014 C 
ENDBRANCH  15  20
ENDBRANCH  13  14
ENDBRANCH  12  13
ENDBRANCH   1  12
BRANCH   9  22
ATOM     22  N   UNL     1      -2.493  18.896   3.782  1.00  0.00    -0.324 N 
ATOM     23  H   UNL     1      -2.428  19.283   4.711  1.00  0.00     0.170 HD
BRANCH  22  24
ATOM     24  C   UNL     1      -2.760  19.798   2.747  1.00  0.00     0.041 A 
ATOM     25  C   UNL     1      -4.020  19.753   2.130  1.00  0.00     0.026 A 
ATOM     26  C   UNL     1      -1.841  20.730   2.261  1.00  0.00     0.026 A 
ATOM     27  C   UNL     1      -4.357  20.625   1.087  1.00  0.00     0.006 A 
ATOM     28  C   UNL     1      -2.172  21.605   1.217  1.00  0.00     0.006 A 
ATOM     29  C   UNL     1      -3.437  21.569   0.620  1.00  0.00    -0.045 A 
BRANCH  29  30
ATOM     30  C   UNL     1      -3.825  22.518  -0.499  1.00  0.00     0.022 C 
ATOM     31  C   UNL     1      -2.636  23.345  -1.029  1.00  0.00     0.024 C 
ATOM     32  C   UNL     1      -4.574  21.795  -1.630  1.00  0.00     0.024 C 
ATOM     33  C   UNL     1      -2.179  22.889  -2.415  1.00  0.00     0.085 C 
ATOM     34  C   UNL     1      -4.590  22.663  -2.886  1.00  0.00     0.085 C 
ATOM     35  N   UNL     1      -3.242  22.881  -3.427  1.00  0.00    -0.306 NA
ATOM     36  C   UNL     1      -3.209  24.070  -4.274  1.00  0.00     0.105 C 
ENDBRANCH  29  30
ENDBRANCH  22  24
ENDBRANCH   9  22
TORSDOF 7
ENDMDL
MODEL 5
REMARK VINA RESULT:      -8.7      2.895      8.752
REMARK SMILES C=CC(=O)N1CC(CCn2c(=O)ccc3cnc(Nc4ccc(C5CCN(C)CC5)cc4)nc32)C1
REMARK SMILES IDX 10 1 11 2 12 3 13 4 14 5 15 6 16 7 17 8 18 9 33 10 34 11
REMARK SMILES IDX 9 12 8 13 7 14 3 15 4 16 5 17 6 18 35 19 2 20 1 21 19 22
REMARK SMILES IDX 20 24 21 25 32 26 22 27 31 28 23 29 24 30 25 31 30 32 26 33
REMARK SMILES IDX 29 34 27 35 28 36
REMARK H PARENT 19 23
ROOT
ATOM      1  N   UNL     1       5.233  20.123   8.746  1.00  0.00    -0.293 N 
ATOM      2  C   UNL     1       5.929  21.205   9.261  1.00  0.00     0.252 A 
ATOM      3  O   UNL     1       5.515  22.362   9.262  1.00  0.00    -0.269 OA
ATOM      4  C   UNL     1       7.271  20.936   9.836  1.00  0.00     0.072 A 
ATOM      5  C   UNL     1       7.804  19.710   9.835  1.00  0.00     0.019 A 
ATOM      6  C   UNL     1       7.044  18.615   9.260  1.00  0.00     0.036 A 
ATOM      7  C   UNL     1       7.509  17.323   9.194  1.00  0.00     0.127 A 
ATOM      8  N   UNL     1       6.810  16.304   8.658  1.00  0.00    -0.221 NA
ATOM      9  C   UNL     1       5.593  16.578   8.172  1.00  0.00     0.229 A 
ATOM     10  N   UNL     1       5.054  17.807   8.197  1.00  0.00    -0.194 NA
ATOM     11  C   UNL     1       5.781  18.810   8.732  1.00  0.00     0.148 A 
ENDROOT
BRANCH   1  12
ATOM     12  C   UNL     1       3.905  20.332   8.172  1.00  0.00     0.128 C 
BRANCH  12  13
ATOM     13  C   UNL     1       3.916  21.122   6.859  1.00  0.00     0.029 C 
BRANCH  13  14
ATOM     14  C   UNL     1       2.691  20.829   5.987  1.00  0.00     0.030 C 
ATOM     15  C   UNL     1       0.527  23.017   7.077  1.00  0.00     0.245 C 
ATOM     16  O   UNL     1       0.200  22.895   8.254  1.00  0.00    -0.270 OA
ATOM     17  N   UNL     1       1.006  21.991   6.308  1.00  0.00    -0.338 N 
ATOM     18  C   UNL     1       1.385  20.666   6.786  1.00  0.00     0.125 C 
ATOM     19  C   UNL     1       2.028  22.020   5.266  1.00  0.00     0.125 C 
BRANCH  15  20
ATOM     20  C   UNL     1       0.429  24.353   6.434  1.00  0.00     0.063 C 
ATOM     21  C   UNL     1      -0.587  24.726   5.647  1.00  0.00     0.014 C 
ENDBRANCH  15  20
ENDBRANCH  13  14
ENDBRANCH  12  13
ENDBRANCH   1  12
BRANCH   9  22
ATOM     22  N   UNL     1       4.786  15.601   7.601  1.00  0.00    -0.324 N 
ATOM     23  H   UNL     1       5.213  14.698   7.744  1.00  0.00     0.170 HD
BRANCH  22  24
ATOM     24  C   UNL     1       3.508  15.604   7.030  1.00  0.00     0.041 A 
ATOM     25  C   UNL     1       2.421  15.208   7.824  1.00  0.00     0.026 A 
ATOM     26  C   UNL     1       3.242  15.949   5.704  1.00  0.00     0.026 A 
ATOM     27  C   UNL     1       1.115  15.185   7.319  1.00  0.00     0.006 A 
ATOM     28  C   UNL     1       1.938  15.927   5.193  1.00  0.00     0.006 A 
ATOM     29  C   UNL     1       0.855  15.552   5.995  1.00  0.00    -0.045 A 
BRANCH  29  30
ATOM     30  C   UNL     1      -0.570  15.539   5.470  1.00  0.00     0.022 C 
ATOM     31  C   UNL     1      -1.187  16.948   5.366  1.00  0.00     0.024 C 
ATOM     32  C   UNL     1      -0.687  14.759   4.150  1.00  0.00     0.024 C 
ATOM     33  C   UNL     1      -1.320  17.423   3.919  1.00  0.00     0.085 C 
ATOM     34  C   UNL     1      -2.004  15.099   3.458  1.00  0.00     0.085 C 
ATOM     35  N   UNL     1      -2.070  16.509   3.051  1.00  0.00    -0.306 NA
ATOM     36  C   UNL     1      -3.456  16.932   2.869  1.00  0.00     0.105 C 
ENDBRANCH  29  30
ENDBRANCH  22  24
ENDBRANCH   9  22
TORSDOF 7
ENDMDL
MODEL 6
REMARK VINA RESULT:      -8.7      3.149      6.990
REMARK SMILES C=CC(=O)N1CC(CCn2c(=O)ccc3cnc(Nc4ccc(C5CCN(C)CC5)cc4)nc32)C1
REMARK SMILES IDX 10 1 11 2 12 3 13 4 14 5 15 6 16 7 17 8 18 9 33 10 34 11
REMARK SMILES IDX 9 12 8 13 7 14 3 15 4 16 5 17 6 18 35 19 2 20 1 21 19 22
REMARK SMILES IDX 20 24 21 25 32 26 22 27 31 28 23 29 24 30 25 31 30 32 26 33
REMARK SMILES IDX 29 34 27 35 28 36
REMARK H PARENT 19 23
ROOT
ATOM      1  N   UNL     1       2.623  18.544   6.684  1.00  0.00    -0.293 N 
ATOM      2  C   UNL     1       3.915  18.693   7.162  1.00  0.00     0.252 A 
ATOM      3  O   UNL     1       4.610  17.773   7.588  1.00  0.00    -0.269 OA
ATOM      4  C   UNL     1       4.484  20.065   7.164  1.00  0.00     0.072 A 
ATOM      5  C   UNL     1       3.774  21.121   6.752  1.00  0.00     0.019 A 
ATOM      6  C   UNL     1       2.414  20.914   6.286  1.00  0.00     0.036 A 
ATOM      7  C   UNL     1       1.597  21.934   5.860  1.00  0.00     0.127 A 
ATOM      8  N   UNL     1       0.335  21.748   5.430  1.00  0.00    -0.221 NA
ATOM      9  C   UNL     1      -0.136  20.495   5.417  1.00  0.00     0.229 A 
ATOM     10  N   UNL     1       0.589  19.436   5.810  1.00  0.00    -0.194 NA
ATOM     11  C   UNL     1       1.849  19.653   6.244  1.00  0.00     0.148 A 
ENDROOT
BRANCH   1  12
ATOM     12  C   UNL     1       2.018  17.213   6.656  1.00  0.00     0.128 C 
BRANCH  12  13
ATOM     13  C   UNL     1       2.288  16.438   5.362  1.00  0.00     0.029 C 
BRANCH  13  14
ATOM     14  C   UNL     1       1.381  15.213   5.212  1.00  0.00     0.030 C 
ATOM     15  C   UNL     1      -1.535  16.573   4.658  1.00  0.00     0.245 C 
ATOM     16  O   UNL     1      -1.974  17.268   5.570  1.00  0.00    -0.270 OA
ATOM     17  N   UNL     1      -0.626  15.565   4.838  1.00  0.00    -0.338 N 
ATOM     18  C   UNL     1       0.103  15.278   6.068  1.00  0.00     0.125 C 
ATOM     19  C   UNL     1       0.470  15.148   3.970  1.00  0.00     0.125 C 
BRANCH  15  20
ATOM     20  C   UNL     1      -1.981  16.839   3.266  1.00  0.00     0.063 C 
ATOM     21  C   UNL     1      -3.254  17.079   2.928  1.00  0.00     0.014 C 
ENDBRANCH  15  20
ENDBRANCH  13  14
ENDBRANCH  12  13
ENDBRANCH   1  12
BRANCH   9  22
ATOM     22  N   UNL     1      -1.424  20.191   4.989  1.00  0.00    -0.324 N 
ATOM     23  H   UNL     1      -1.871  19.611   5.684  1.00  0.00     0.170 HD
BRANCH  22  24
ATOM     24  C   UNL     1      -2.224  20.621   3.925  1.00  0.00     0.041 A 
ATOM     25  C   UNL     1      -1.689  20.581   2.628  1.00  0.00     0.026 A 
ATOM     26  C   UNL     1      -3.520  21.119   4.070  1.00  0.00     0.026 A 
ATOM     27  C   UNL     1      -2.432  20.997   1.517  1.00  0.00     0.006 A 
ATOM     28  C   UNL     1      -4.268  21.537   2.961  1.00  0.00     0.006 A 
ATOM     29  C   UNL     1      -3.737  21.476   1.668  1.00  0.00    -0.045 A 
BRANCH  29  30
ATOM     30  C   UNL     1      -4.534  21.905   0.449  1.00  0.00     0.022 C 
ATOM     31  C   UNL     1      -3.753  21.741  -0.871  1.00  0.00     0.024 C 
ATOM     32  C   UNL     1      -5.910  21.222   0.395  1.00  0.00     0.024 C 
ATOM     33  C   UNL     1      -4.272  20.577  -1.715  1.00  0.00     0.085 C 
ATOM     34  C   UNL     1      -6.503  21.353  -1.006  1.00  0.00     0.085 C 
ATOM     35  N   UNL     1      -5.707  20.642  -2.015  1.00  0.00    -0.306 NA
ATOM     36  C   UNL     1      -5.970  21.171  -3.351  1.00  0.00     0.105 C 
ENDBRANCH  29  30
ENDBRANCH  22  24
ENDBRANCH   9  22
TORSDOF 7
ENDMDL
MODEL 7
REMARK VINA RESULT:      -8.4      3.214      9.260
REMARK SMILES C=CC(=O)N1CC(CCn2c(=O)ccc3cnc(Nc4ccc(C5CCN(C)CC5)cc4)nc32)C1
REMARK SMILES IDX 10 1 11 2 12 3 13 4 14 5 15 6 16 7 17 8 18 9 33 10 34 11
REMARK SMILES IDX 9 12 8 13 7 14 3 15 4 16 5 17 6 18 35 19 2 20 1 21 19 22
REMARK SMILES IDX 20 24 21 25 32 26 22 27 31 28 23 29 24 30 25 31 30 32 26 33
REMARK SMILES IDX 29 34 27 35 28 36
REMARK H PARENT 19 23
ROOT
ATOM      1  N   UNL     1       6.570  20.554   9.072  1.00  0.00    -0.293 N 
ATOM      2  C   UNL     1       7.206  21.644   9.644  1.00  0.00     0.252 A 
ATOM      3  O   UNL     1       6.897  22.816   9.440  1.00  0.00    -0.269 OA
ATOM      4  C   UNL     1       8.344  21.364  10.556  1.00  0.00     0.072 A 
ATOM      5  C   UNL     1       8.761  20.117  10.796  1.00  0.00     0.019 A 
ATOM      6  C   UNL     1       8.077  19.010  10.150  1.00  0.00     0.036 A 
ATOM      7  C   UNL     1       8.440  17.695  10.316  1.00  0.00     0.127 A 
ATOM      8  N   UNL     1       7.812  16.666   9.717  1.00  0.00    -0.221 NA
ATOM      9  C   UNL     1       6.773  16.954   8.922  1.00  0.00     0.229 A 
ATOM     10  N   UNL     1       6.344  18.207   8.703  1.00  0.00    -0.194 NA
ATOM     11  C   UNL     1       6.999  19.219   9.310  1.00  0.00     0.148 A 
ENDROOT
BRANCH   1  12
ATOM     12  C   UNL     1       5.440  20.776   8.170  1.00  0.00     0.128 C 
BRANCH  12  13
ATOM     13  C   UNL     1       4.158  20.052   8.595  1.00  0.00     0.029 C 
BRANCH  13  14
ATOM     14  C   UNL     1       3.401  19.453   7.405  1.00  0.00     0.030 C 
ATOM     15  C   UNL     1       1.511  21.945   6.466  1.00  0.00     0.245 C 
ATOM     16  O   UNL     1       0.688  22.324   7.295  1.00  0.00    -0.270 OA
ATOM     17  N   UNL     1       2.040  20.682   6.440  1.00  0.00    -0.338 N 
ATOM     18  C   UNL     1       1.877  19.663   7.471  1.00  0.00     0.125 C 
ATOM     19  C   UNL     1       3.392  20.258   6.089  1.00  0.00     0.125 C 
BRANCH  15  20
ATOM     20  C   UNL     1       1.994  22.900   5.436  1.00  0.00     0.063 C 
ATOM     21  C   UNL     1       2.537  24.090   5.724  1.00  0.00     0.014 C 
ENDBRANCH  15  20
ENDBRANCH  13  14
ENDBRANCH  12  13
ENDBRANCH   1  12
BRANCH   9  22
ATOM     22  N   UNL     1       6.052  15.968   8.257  1.00  0.00    -0.324 N 
ATOM     23  H   UNL     1       6.377  15.063   8.563  1.00  0.00     0.170 HD
BRANCH  22  24
ATOM     24  C   UNL     1       4.938  15.980   7.412  1.00  0.00     0.041 A 
ATOM     25  C   UNL     1       5.143  16.193   6.039  1.00  0.00     0.026 A 
ATOM     26  C   UNL     1       3.622  15.820   7.846  1.00  0.00     0.026 A 
ATOM     27  C   UNL     1       4.074  16.219   5.135  1.00  0.00     0.006 A 
ATOM     28  C   UNL     1       2.548  15.845   6.946  1.00  0.00     0.006 A 
ATOM     29  C   UNL     1       2.760  16.038   5.576  1.00  0.00    -0.045 A 
BRANCH  29  30
ATOM     30  C   UNL     1       1.616  16.051   4.579  1.00  0.00     0.022 C 
ATOM     31  C   UNL     1       0.923  14.680   4.438  1.00  0.00     0.024 C 
ATOM     32  C   UNL     1       0.611  17.176   4.873  1.00  0.00     0.024 C 
ATOM     33  C   UNL     1      -0.462  14.656   5.082  1.00  0.00     0.085 C 
ATOM     34  C   UNL     1      -0.696  16.918   4.128  1.00  0.00     0.085 C 
ATOM     35  N   UNL     1      -1.371  15.701   4.597  1.00  0.00    -0.306 NA
ATOM     36  C   UNL     1      -2.300  15.201   3.587  1.00  0.00     0.105 C 
ENDBRANCH  29  30
ENDBRANCH  22  24
ENDBRANCH   9  22
TORSDOF 7
ENDMDL
MODEL 8
REMARK VINA RESULT:      -8.4      3.559      7.049
REMARK SMILES C=CC(=O)N1CC(CCn2c(=O)ccc3cnc(Nc4ccc(C5CCN(C)CC5)cc4)nc32)C1
REMARK SMILES IDX 10 1 11 2 12 3 13 4 14 5 15 6 16 7 17 8 18 9 33 10 34 11
REMARK SMILES IDX 9 12 8 13 7 14 3 15 4 16 5 17 6 18 35 19 2 20 1 21 19 22
REMARK SMILES IDX 20 24 21 25 32 26 22 27 31 28 23 29 24 30 25 31 30 32 26 33
REMARK SMILES IDX 29 34 27 35 28 36
REMARK H PARENT 19 23
ROOT
ATOM      1  N   UNL     1      -1.093  17.385   4.344  1.00  0.00    -0.293 N 
ATOM      2  C   UNL     1      -1.569  16.334   3.578  1.00  0.00     0.252 A 
ATOM      3  O   UNL     1      -2.652  16.331   2.996  1.00  0.00    -0.269 OA
ATOM      4  C   UNL     1      -0.709  15.128   3.470  1.00  0.00     0.072 A 
ATOM      5  C   UNL     1       0.464  15.043   4.107  1.00  0.00     0.019 A 
ATOM      6  C   UNL     1       0.905  16.163   4.919  1.00  0.00     0.036 A 
ATOM      7  C   UNL     1       2.084  16.167   5.626  1.00  0.00     0.127 A 
ATOM      8  N   UNL     1       2.496  17.201   6.384  1.00  0.00    -0.221 NA
ATOM      9  C   UNL     1       1.707  18.282   6.436  1.00  0.00     0.229 A 
ATOM     10  N   UNL     1       0.542  18.370   5.777  1.00  0.00    -0.194 NA
ATOM     11  C   UNL     1       0.150  17.315   5.032  1.00  0.00     0.148 A 
ENDROOT
BRANCH   1  12
ATOM     12  C   UNL     1      -1.900  18.597   4.478  1.00  0.00     0.128 C 
BRANCH  12  13
ATOM     13  C   UNL     1      -1.936  19.460   3.212  1.00  0.00     0.029 C 
BRANCH  13  14
ATOM     14  C   UNL     1      -2.470  20.871   3.479  1.00  0.00     0.030 C 
ATOM     15  C   UNL     1      -0.029  22.225   5.174  1.00  0.00     0.245 C 
ATOM     16  O   UNL     1       0.219  21.696   6.254  1.00  0.00    -0.270 OA
ATOM     17  N   UNL     1      -1.247  22.154   4.553  1.00  0.00    -0.338 N 
ATOM     18  C   UNL     1      -2.366  21.306   4.952  1.00  0.00     0.125 C 
ATOM     19  C   UNL     1      -1.551  22.059   3.128  1.00  0.00     0.125 C 
BRANCH  15  20
ATOM     20  C   UNL     1       1.046  22.969   4.468  1.00  0.00     0.063 C 
ATOM     21  C   UNL     1       1.838  23.870   5.062  1.00  0.00     0.014 C 
ENDBRANCH  15  20
ENDBRANCH  13  14
ENDBRANCH  12  13
ENDBRANCH   1  12
BRANCH   9  22
ATOM     22  N   UNL     1       2.039  19.406   7.185  1.00  0.00    -0.324 N 
ATOM     23  H   UNL     1       1.227  19.704   7.705  1.00  0.00     0.170 HD
BRANCH  22  24
ATOM     24  C   UNL     1       3.236  20.077   7.457  1.00  0.00     0.041 A 
ATOM     25  C   UNL     1       3.970  19.702   8.593  1.00  0.00     0.026 A 
ATOM     26  C   UNL     1       3.741  21.123   6.683  1.00  0.00     0.026 A 
ATOM     27  C   UNL     1       5.175  20.331   8.927  1.00  0.00     0.006 A 
ATOM     28  C   UNL     1       4.947  21.757   7.013  1.00  0.00     0.006 A 
ATOM     29  C   UNL     1       5.684  21.365   8.136  1.00  0.00    -0.045 A 
BRANCH  29  30
ATOM     30  C   UNL     1       7.002  22.023   8.503  1.00  0.00     0.022 C 
ATOM     31  C   UNL     1       7.721  21.322   9.673  1.00  0.00     0.024 C 
ATOM     32  C   UNL     1       7.919  22.192   7.280  1.00  0.00     0.024 C 
ATOM     33  C   UNL     1       8.954  20.540   9.218  1.00  0.00     0.085 C 
ATOM     34  C   UNL     1       9.349  22.471   7.734  1.00  0.00     0.085 C 
ATOM     35  N   UNL     1       9.930  21.339   8.468  1.00  0.00    -0.306 NA
ATOM     36  C   UNL     1      11.044  21.778   9.304  1.00  0.00     0.105 C 
ENDBRANCH  29  30
ENDBRANCH  22  24
ENDBRANCH   9  22
TORSDOF 7
ENDMDL
MODEL 9
REMARK VINA RESULT:      -8.4      2.257      6.824
REMARK SMILES C=CC(=O)N1CC(CCn2c(=O)ccc3cnc(Nc4ccc(C5CCN(C)CC5)cc4)nc32)C1
REMARK SMILES IDX 10 1 11 2 12 3 13 4 14 5 15 6 16 7 17 8 18 9 33 10 34 11
REMARK SMILES IDX 9 12 8 13 7 14 3 15 4 16 5 17 6 18 35 19 2 20 1 21 19 22
REMARK SMILES IDX 20 24 21 25 32 26 22 27 31 28 23 29 24 30 25 31 30 32 26 33
REMARK SMILES IDX 29 34 27 35 28 36
REMARK H PARENT 19 23
ROOT
ATOM      1  N   UNL     1       3.067  18.023   6.771  1.00  0.00    -0.293 N 
ATOM      2  C   UNL     1       3.714  17.012   7.463  1.00  0.00     0.252 A 
ATOM      3  O   UNL     1       3.394  15.826   7.422  1.00  0.00    -0.269 OA
ATOM      4  C   UNL     1       4.864  17.402   8.317  1.00  0.00     0.072 A 
ATOM      5  C   UNL     1       5.247  18.677   8.441  1.00  0.00     0.019 A 
ATOM      6  C   UNL     1       4.518  19.702   7.716  1.00  0.00     0.036 A 
ATOM      7  C   UNL     1       4.819  21.041   7.790  1.00  0.00     0.127 A 
ATOM      8  N   UNL     1       4.145  21.996   7.123  1.00  0.00    -0.221 NA
ATOM      9  C   UNL     1       3.130  21.606   6.342  1.00  0.00     0.229 A 
ATOM     10  N   UNL     1       2.766  20.321   6.203  1.00  0.00    -0.194 NA
ATOM     11  C   UNL     1       3.454  19.386   6.891  1.00  0.00     0.148 A 
ENDROOT
BRANCH   1  12
ATOM     12  C   UNL     1       1.931  17.691   5.913  1.00  0.00     0.128 C 
BRANCH  12  13
ATOM     13  C   UNL     1       2.277  16.724   4.775  1.00  0.00     0.029 C 
BRANCH  13  14
ATOM     14  C   UNL     1       1.418  15.456   4.802  1.00  0.00     0.030 C 
ATOM     15  C   UNL     1      -1.611  16.668   4.681  1.00  0.00     0.245 C 
ATOM     16  O   UNL     1      -1.935  17.373   5.633  1.00  0.00    -0.270 OA
ATOM     17  N   UNL     1      -0.637  15.707   4.741  1.00  0.00    -0.338 N 
ATOM     18  C   UNL     1       0.289  15.493   5.848  1.00  0.00     0.125 C 
ATOM     19  C   UNL     1       0.328  15.310   3.721  1.00  0.00     0.125 C 
BRANCH  15  20
ATOM     20  C   UNL     1      -2.282  16.868   3.371  1.00  0.00     0.063 C 
ATOM     21  C   UNL     1      -3.048  15.943   2.780  1.00  0.00     0.014 C 
ENDBRANCH  15  20
ENDBRANCH  13  14
ENDBRANCH  12  13
ENDBRANCH   1  12
BRANCH   9  22
ATOM     22  N   UNL     1       2.370  22.509   5.607  1.00  0.00    -0.324 N 
ATOM     23  H   UNL     1       2.975  23.232   5.249  1.00  0.00     0.170 HD
BRANCH  22  24
ATOM     24  C   UNL     1       1.041  22.534   5.169  1.00  0.00     0.041 A 
ATOM     25  C   UNL     1       0.782  22.899   3.839  1.00  0.00     0.026 A 
ATOM     26  C   UNL     1      -0.057  22.245   5.981  1.00  0.00     0.026 A 
ATOM     27  C   UNL     1      -0.523  22.948   3.334  1.00  0.00     0.006 A 
ATOM     28  C   UNL     1      -1.366  22.292   5.481  1.00  0.00     0.006 A 
ATOM     29  C   UNL     1      -1.616  22.637   4.148  1.00  0.00    -0.045 A 
BRANCH  29  30
ATOM     30  C   UNL     1      -3.023  22.677   3.578  1.00  0.00     0.022 C 
ATOM     31  C   UNL     1      -3.049  22.902   2.052  1.00  0.00     0.024 C 
ATOM     32  C   UNL     1      -3.845  21.447   3.994  1.00  0.00     0.024 C 
ATOM     33  C   UNL     1      -3.443  21.642   1.283  1.00  0.00     0.085 C 
ATOM     34  C   UNL     1      -5.077  21.315   3.102  1.00  0.00     0.085 C 
ATOM     35  N   UNL     1      -4.721  21.055   1.700  1.00  0.00    -0.306 NA
ATOM     36  C   UNL     1      -5.818  21.427   0.810  1.00  0.00     0.105 C 
ENDBRANCH  29  30
ENDBRANCH  22  24
ENDBRANCH   9  22
TORSDOF 7
ENDMDL
