MODEL 1
REMARK VINA RESULT:      -9.1      0.000      0.000
REMARK SMILES C=CC(=O)N1CC(CCn2c(=O)ccc3cnc(Nc4ccc(-n5ccnc5)cc4)nc32)C1
REMARK SMILES IDX 10 1 11 2 12 3 13 4 14 5 15 6 16 7 17 8 18 9 31 10 32 11
REMARK SMILES IDX 9 12 8 13 7 14 3 15 4 16 5 17 6 18 33 19 2 20 1 21 19 22
REMARK SMILES IDX 20 24 21 25 30 26 22 27 29 28 23 29 24 30 25 31 28 32 26 33
REMARK SMILES IDX 27 34
REMARK H PARENT 19 23
ROOT
ATOM      1  N   UNL     1       0.365  14.249   4.365  1.00  0.00    -0.293 N 
ATOM      2  C   UNL     1       0.734  12.929   4.577  1.00  0.00     0.252 A 
ATOM      3  O   UNL     1       1.799  12.577   5.079  1.00  0.00    -0.269 OA
ATOM      4  C   UNL     1      -0.237  11.879   4.175  1.00  0.00     0.072 A 
ATOM      5  C   UNL     1      -1.426  12.187   3.647  1.00  0.00     0.019 A 
ATOM      6  C   UNL     1      -1.771  13.586   3.462  1.00  0.00     0.036 A 
ATOM      7  C   UNL     1      -2.970  14.005   2.936  1.00  0.00     0.127 A 
ATOM      8  N   UNL     1      -3.296  15.300   2.763  1.00  0.00    -0.221 NA
ATOM      9  C   UNL     1      -2.393  16.219   3.128  1.00  0.00     0.229 A 
ATOM     10  N   UNL     1      -1.197  15.905   3.648  1.00  0.00    -0.194 NA
ATOM     11  C   UNL     1      -0.897  14.598   3.811  1.00  0.00     0.148 A 
ENDROOT
BRANCH   1  12
ATOM     12  C   UNL     1       1.289  15.319   4.735  1.00  0.00     0.128 C 
BRANCH  12  13
ATOM     13  C   UNL     1       1.186  15.744   6.203  1.00  0.00     0.029 C 
BRANCH  13  14
ATOM     14  C   UNL     1       1.927  17.053   6.487  1.00  0.00     0.030 C 
ATOM     15  C   UNL     1       5.088  16.374   5.861  1.00  0.00     0.245 C 
ATOM     16  O   UNL     1       5.377  16.129   4.693  1.00  0.00    -0.270 OA
ATOM     17  N   UNL     1       3.983  17.089   6.234  1.00  0.00    -0.338 N 
ATOM     18  C   UNL     1       2.884  17.488   5.364  1.00  0.00     0.125 C 
ATOM     19  C   UNL     1       3.149  16.984   7.424  1.00  0.00     0.125 C 
BRANCH  15  20
ATOM     20  C   UNL     1       5.959  15.848   6.944  1.00  0.00     0.063 C 
ATOM     21  C   UNL     1       7.156  15.285   6.745  1.00  0.00     0.014 C 
ENDBRANCH  15  20
ENDBRANCH  13  14
ENDBRANCH  12  13
ENDBRANCH   1  12
BRANCH   9  22
ATOM     22  N   UNL     1      -2.633  17.583   2.997  1.00  0.00    -0.324 N 
ATOM     23  H   UNL     1      -3.339  17.726   2.289  1.00  0.00     0.170 HD
BRANCH  22  24
ATOM     24  C   UNL     1      -2.119  18.727   3.615  1.00  0.00     0.041 A 
ATOM     25  C   UNL     1      -1.279  18.570   4.726  1.00  0.00     0.028 A 
ATOM     26  C   UNL     1      -2.390  20.031   3.197  1.00  0.00     0.028 A 
ATOM     27  C   UNL     1      -0.729  19.672   5.398  1.00  0.00     0.029 A 
ATOM     28  C   UNL     1      -1.846  21.143   3.859  1.00  0.00     0.029 A 
ATOM     29  C   UNL     1      -1.008  20.973   4.967  1.00  0.00     0.047 A 
BRANCH  29  30
ATOM     30  N   UNL     1      -0.454  22.099   5.642  1.00  0.00    -0.306 N 
ATOM     31  C   UNL     1      -1.028  23.342   5.812  1.00  0.00     0.113 A 
ATOM     32  C   UNL     1       0.774  22.183   6.267  1.00  0.00     0.204 A 
ATOM     33  C   UNL     1      -0.122  24.092   6.523  1.00  0.00     0.131 A 
ATOM     34  N   UNL     1       0.996  23.364   6.802  1.00  0.00    -0.245 NA
ENDBRANCH  29  30
ENDBRANCH  22  24
ENDBRANCH   9  22
TORSDOF 7
ENDMDL
MODEL 2
REMARK VINA RESULT:      -9.0      1.598      2.105
REMARK SMILES C=CC(=O)N1CC(CCn2c(=O)ccc3cnc(Nc4ccc(-n5ccnc5)cc4)nc32)C1
REMARK SMILES IDX 10 1 11 2 12 3 13 4 14 5 15 6 16 7 17 8 18 9 31 10 32 11
REMARK SMILES IDX 9 12 8 13 7 14 3 15 4 16 5 17 6 18 33 19 2 20 1 21 19 22
REMARK SMILES IDX 20 24 21 25 30 26 22 27 29 28 23 29 24 30 25 31 28 32 26 33
REMARK SMILES IDX 27 34
REMARK H PARENT 19 23
ROOT
ATOM      1  N   UNL     1       0.236  14.781   4.516  1.00  0.00    -0.293 N 
ATOM      2  C   UNL     1       1.016  13.715   4.938  1.00  0.00     0.252 A 
ATOM      3  O   UNL     1       2.095  13.829   5.515  1.00  0.00    -0.269 OA
ATOM      4  C   UNL     1       0.495  12.348   4.681  1.00  0.00     0.072 A 
ATOM      5  C   UNL     1      -0.683  12.146   4.082  1.00  0.00     0.019 A 
ATOM      6  C   UNL     1      -1.470  13.298   3.674  1.00  0.00     0.036 A 
ATOM      7  C   UNL     1      -2.696  13.196   3.061  1.00  0.00     0.127 A 
ATOM      8  N   UNL     1      -3.430  14.258   2.682  1.00  0.00    -0.221 NA
ATOM      9  C   UNL     1      -2.926  15.475   2.922  1.00  0.00     0.229 A 
ATOM     10  N   UNL     1      -1.738  15.673   3.513  1.00  0.00    -0.194 NA
ATOM     11  C   UNL     1      -1.024  14.589   3.884  1.00  0.00     0.148 A 
ENDROOT
BRANCH   1  12
ATOM     12  C   UNL     1       0.708  16.146   4.737  1.00  0.00     0.128 C 
BRANCH  12  13
ATOM     13  C   UNL     1       0.380  16.694   6.130  1.00  0.00     0.029 C 
BRANCH  13  14
ATOM     14  C   UNL     1       1.357  17.787   6.574  1.00  0.00     0.030 C 
ATOM     15  C   UNL     1       4.340  16.554   5.922  1.00  0.00     0.245 C 
ATOM     16  O   UNL     1       4.618  16.384   4.738  1.00  0.00    -0.270 OA
ATOM     17  N   UNL     1       3.386  17.432   6.357  1.00  0.00    -0.338 N 
ATOM     18  C   UNL     1       2.423  18.139   5.523  1.00  0.00     0.125 C 
ATOM     19  C   UNL     1       2.503  17.369   7.515  1.00  0.00     0.125 C 
BRANCH  15  20
ATOM     20  C   UNL     1       5.046  15.746   6.951  1.00  0.00     0.063 C 
ATOM     21  C   UNL     1       6.215  16.085   7.506  1.00  0.00     0.014 C 
ENDBRANCH  15  20
ENDBRANCH  13  14
ENDBRANCH  12  13
ENDBRANCH   1  12
BRANCH   9  22
ATOM     22  N   UNL     1      -3.606  16.639   2.575  1.00  0.00    -0.324 N 
ATOM     23  H   UNL     1      -4.437  16.391   2.057  1.00  0.00     0.170 HD
BRANCH  22  24
ATOM     24  C   UNL     1      -3.379  18.001   2.790  1.00  0.00     0.041 A 
ATOM     25  C   UNL     1      -4.277  18.926   2.237  1.00  0.00     0.028 A 
ATOM     26  C   UNL     1      -2.307  18.510   3.523  1.00  0.00     0.028 A 
ATOM     27  C   UNL     1      -4.111  20.309   2.409  1.00  0.00     0.029 A 
ATOM     28  C   UNL     1      -2.130  19.891   3.704  1.00  0.00     0.029 A 
ATOM     29  C   UNL     1      -3.032  20.805   3.148  1.00  0.00     0.047 A 
BRANCH  29  30
ATOM     30  N   UNL     1      -2.856  22.207   3.329  1.00  0.00    -0.306 N 
ATOM     31  C   UNL     1      -3.497  23.227   2.655  1.00  0.00     0.113 A 
ATOM     32  C   UNL     1      -2.009  22.839   4.215  1.00  0.00     0.204 A 
ATOM     33  C   UNL     1      -3.002  24.401   3.171  1.00  0.00     0.131 A 
ATOM     34  N   UNL     1      -2.077  24.152   4.141  1.00  0.00    -0.245 NA
ENDBRANCH  29  30
ENDBRANCH  22  24
ENDBRANCH   9  22
TORSDOF 7
ENDMDL
MODEL 3
REMARK VINA RESULT:      -8.7      2.751      3.779
REMARK SMILES C=CC(=O)N1CC(CCn2c(=O)ccc3cnc(Nc4ccc(-n5ccnc5)cc4)nc32)C1
REMARK SMILES IDX 10 1 11 2 12 3 13 4 14 5 15 6 16 7 17 8 18 9 31 10 32 11
REMARK SMILES IDX 9 12 8 13 7 14 3 15 4 16 5 17 6 18 33 19 2 20 1 21 19 22
REMARK SMILES IDX 20 24 21 25 30 26 22 27 29 28 23 29 24 30 25 31 28 32 26 33
REMARK SMILES IDX 27 34
REMARK H PARENT 19 23
ROOT
ATOM      1  N   UNL     1       0.506  14.614   5.404  1.00  0.00    -0.293 N 
ATOM      2  C   UNL     1       0.187  13.413   4.789  1.00  0.00     0.252 A 
ATOM      3  O   UNL     1       0.666  12.324   5.100  1.00  0.00    -0.269 OA
ATOM      4  C   UNL     1      -0.810  13.456   3.689  1.00  0.00     0.072 A 
ATOM      5  C   UNL     1      -1.392  14.600   3.314  1.00  0.00     0.019 A 
ATOM      6  C   UNL     1      -1.036  15.828   4.003  1.00  0.00     0.036 A 
ATOM      7  C   UNL     1      -1.585  17.051   3.698  1.00  0.00     0.127 A 
ATOM      8  N   UNL     1      -1.260  18.193   4.334  1.00  0.00    -0.221 NA
ATOM      9  C   UNL     1      -0.351  18.118   5.314  1.00  0.00     0.229 A 
ATOM     10  N   UNL     1       0.239  16.970   5.680  1.00  0.00    -0.194 NA
ATOM     11  C   UNL     1      -0.107  15.840   5.026  1.00  0.00     0.148 A 
ENDROOT
BRANCH   1  12
ATOM     12  C   UNL     1       1.489  14.626   6.486  1.00  0.00     0.128 C 
BRANCH  12  13
ATOM     13  C   UNL     1       2.941  14.669   6.001  1.00  0.00     0.029 C 
BRANCH  13  14
ATOM     14  C   UNL     1       3.535  16.079   6.056  1.00  0.00     0.030 C 
ATOM     15  C   UNL     1       6.693  15.623   6.869  1.00  0.00     0.245 C 
ATOM     16  O   UNL     1       7.397  15.047   6.043  1.00  0.00    -0.270 OA
ATOM     17  N   UNL     1       5.536  16.279   6.553  1.00  0.00    -0.338 N 
ATOM     18  C   UNL     1       4.848  16.238   5.269  1.00  0.00     0.125 C 
ATOM     19  C   UNL     1       4.316  16.467   7.326  1.00  0.00     0.125 C 
BRANCH  15  20
ATOM     20  C   UNL     1       7.089  15.587   8.302  1.00  0.00     0.063 C 
ATOM     21  C   UNL     1       7.351  16.672   9.041  1.00  0.00     0.014 C 
ENDBRANCH  15  20
ENDBRANCH  13  14
ENDBRANCH  12  13
ENDBRANCH   1  12
BRANCH   9  22
ATOM     22  N   UNL     1       0.051  19.237   6.037  1.00  0.00    -0.324 N 
ATOM     23  H   UNL     1      -0.754  19.638   6.496  1.00  0.00     0.170 HD
BRANCH  22  24
ATOM     24  C   UNL     1       1.277  19.877   6.240  1.00  0.00     0.041 A 
ATOM     25  C   UNL     1       2.227  19.261   7.067  1.00  0.00     0.028 A 
ATOM     26  C   UNL     1       1.623  21.103   5.671  1.00  0.00     0.028 A 
ATOM     27  C   UNL     1       3.477  19.846   7.319  1.00  0.00     0.029 A 
ATOM     28  C   UNL     1       2.871  21.699   5.913  1.00  0.00     0.029 A 
ATOM     29  C   UNL     1       3.811  21.075   6.741  1.00  0.00     0.047 A 
BRANCH  29  30
ATOM     30  N   UNL     1       5.079  21.676   6.989  1.00  0.00    -0.306 N 
ATOM     31  C   UNL     1       5.782  21.691   8.177  1.00  0.00     0.113 A 
ATOM     32  C   UNL     1       5.868  22.370   6.096  1.00  0.00     0.204 A 
ATOM     33  C   UNL     1       6.942  22.386   7.929  1.00  0.00     0.131 A 
ATOM     34  N   UNL     1       6.988  22.805   6.633  1.00  0.00    -0.245 NA
ENDBRANCH  29  30
ENDBRANCH  22  24
ENDBRANCH   9  22
TORSDOF 7
ENDMDL
MODEL 4
REMARK VINA RESULT:      -8.7      3.189      6.881
REMARK SMILES C=CC(=O)N1CC(CCn2c(=O)ccc3cnc(Nc4ccc(-n5ccnc5)cc4)nc32)C1
REMARK SMILES IDX 10 1 11 2 12 3 13 4 14 5 15 6 16 7 17 8 18 9 31 10 32 11
REMARK SMILES IDX 9 12 8 13 7 14 3 15 4 16 5 17 6 18 33 19 2 20 1 21 19 22
REMARK SMILES IDX 20 24 21 25 30 26 22 27 29 28 23 29 24 30 25 31 28 32 26 33
REMARK SMILES IDX 27 34
REMARK H PARENT 19 23
ROOT
ATOM      1  N   UNL     1      -1.575  16.291   3.543  1.00  0.00    -0.293 N 
ATOM      2  C   UNL     1      -2.797  16.169   2.900  1.00  0.00     0.252 A 
ATOM      3  O   UNL     1      -3.449  17.114   2.461  1.00  0.00    -0.269 OA
ATOM      4  C   UNL     1      -3.340  14.798   2.726  1.00  0.00     0.072 A 
ATOM      5  C   UNL     1      -2.674  13.720   3.154  1.00  0.00     0.019 A 
ATOM      6  C   UNL     1      -1.389  13.901   3.806  1.00  0.00     0.036 A 
ATOM      7  C   UNL     1      -0.624  12.857   4.272  1.00  0.00     0.127 A 
ATOM      8  N   UNL     1       0.568  13.019   4.876  1.00  0.00    -0.221 NA
ATOM      9  C   UNL     1       1.022  14.270   5.023  1.00  0.00     0.229 A 
ATOM     10  N   UNL     1       0.346  15.349   4.602  1.00  0.00    -0.194 NA
ATOM     11  C   UNL     1      -0.847  15.158   3.999  1.00  0.00     0.148 A 
ENDROOT
BRANCH   1  12
ATOM     12  C   UNL     1      -1.002  17.620   3.746  1.00  0.00     0.128 C 
BRANCH  12  13
ATOM     13  C   UNL     1      -1.924  18.580   4.507  1.00  0.00     0.029 C 
BRANCH  13  14
ATOM     14  C   UNL     1      -1.699  20.042   4.113  1.00  0.00     0.030 C 
ATOM     15  C   UNL     1      -4.460  20.919   2.548  1.00  0.00     0.245 C 
ATOM     16  O   UNL     1      -5.486  20.958   3.222  1.00  0.00    -0.270 OA
ATOM     17  N   UNL     1      -3.202  21.019   3.076  1.00  0.00    -0.338 N 
ATOM     18  C   UNL     1      -2.859  20.979   4.491  1.00  0.00     0.125 C 
ATOM     19  C   UNL     1      -1.946  20.423   2.641  1.00  0.00     0.125 C 
BRANCH  15  20
ATOM     20  C   UNL     1      -4.570  20.721   1.079  1.00  0.00     0.063 C 
ATOM     21  C   UNL     1      -5.713  20.814   0.387  1.00  0.00     0.014 C 
ENDBRANCH  15  20
ENDBRANCH  13  14
ENDBRANCH  12  13
ENDBRANCH   1  12
BRANCH   9  22
ATOM     22  N   UNL     1       2.244  14.546   5.628  1.00  0.00    -0.324 N 
ATOM     23  H   UNL     1       2.787  13.696   5.676  1.00  0.00     0.170 HD
BRANCH  22  24
ATOM     24  C   UNL     1       2.834  15.700   6.153  1.00  0.00     0.041 A 
ATOM     25  C   UNL     1       2.086  16.887   6.172  1.00  0.00     0.028 A 
ATOM     26  C   UNL     1       4.132  15.753   6.662  1.00  0.00     0.028 A 
ATOM     27  C   UNL     1       2.613  18.083   6.680  1.00  0.00     0.029 A 
ATOM     28  C   UNL     1       4.671  16.944   7.176  1.00  0.00     0.029 A 
ATOM     29  C   UNL     1       3.915  18.122   7.189  1.00  0.00     0.047 A 
BRANCH  29  30
ATOM     30  N   UNL     1       4.460  19.332   7.708  1.00  0.00    -0.306 N 
ATOM     31  C   UNL     1       5.208  19.491   8.857  1.00  0.00     0.113 A 
ATOM     32  C   UNL     1       4.352  20.599   7.172  1.00  0.00     0.204 A 
ATOM     33  C   UNL     1       5.504  20.830   8.943  1.00  0.00     0.131 A 
ATOM     34  N   UNL     1       4.969  21.512   7.891  1.00  0.00    -0.245 NA
ENDBRANCH  29  30
ENDBRANCH  22  24
ENDBRANCH   9  22
TORSDOF 7
ENDMDL
MODEL 5
REMARK VINA RESULT:      -8.6      2.632      3.688
REMARK SMILES C=CC(=O)N1CC(CCn2c(=O)ccc3cnc(Nc4ccc(-n5ccnc5)cc4)nc32)C1
REMARK SMILES IDX 10 1 11 2 12 3 13 4 14 5 15 6 16 7 17 8 18 9 31 10 32 11
REMARK SMILES IDX 9 12 8 13 7 14 3 15 4 16 5 17 6 18 33 19 2 20 1 21 19 22
REMARK SMILES IDX 20 24 21 25 30 26 22 27 29 28 23 29 24 30 25 31 28 32 26 33
REMARK SMILES IDX 27 34
REMARK H PARENT 19 23
ROOT
ATOM      1  N   UNL     1       0.258  14.428   4.355  1.00  0.00    -0.293 N 
ATOM      2  C   UNL     1       0.368  13.047   4.393  1.00  0.00     0.252 A 
ATOM      3  O   UNL     1       1.350  12.439   4.812  1.00  0.00    -0.269 OA
ATOM      4  C   UNL     1      -0.791  12.259   3.901  1.00  0.00     0.072 A 
ATOM      5  C   UNL     1      -1.904  12.851   3.455  1.00  0.00     0.019 A 
ATOM      6  C   UNL     1      -1.975  14.302   3.453  1.00  0.00     0.036 A 
ATOM      7  C   UNL     1      -3.077  15.004   3.023  1.00  0.00     0.127 A 
ATOM      8  N   UNL     1      -3.149  16.348   3.019  1.00  0.00    -0.221 NA
ATOM      9  C   UNL     1      -2.082  17.026   3.461  1.00  0.00     0.229 A 
ATOM     10  N   UNL     1      -0.963  16.428   3.898  1.00  0.00    -0.194 NA
ATOM     11  C   UNL     1      -0.919  15.078   3.891  1.00  0.00     0.148 A 
ENDROOT
BRANCH   1  12
ATOM     12  C   UNL     1       1.375  15.249   4.819  1.00  0.00     0.128 C 
BRANCH  12  13
ATOM     13  C   UNL     1       1.462  15.368   6.344  1.00  0.00     0.029 C 
BRANCH  13  14
ATOM     14  C   UNL     1       2.244  16.606   6.790  1.00  0.00     0.030 C 
ATOM     15  C   UNL     1       5.258  16.188   5.531  1.00  0.00     0.245 C 
ATOM     16  O   UNL     1       5.351  16.216   4.307  1.00  0.00    -0.270 OA
ATOM     17  N   UNL     1       4.231  16.766   6.225  1.00  0.00    -0.338 N 
ATOM     18  C   UNL     1       3.006  17.310   5.654  1.00  0.00     0.125 C 
ATOM     19  C   UNL     1       3.602  16.373   7.480  1.00  0.00     0.125 C 
BRANCH  15  20
ATOM     20  C   UNL     1       6.292  15.465   6.316  1.00  0.00     0.063 C 
ATOM     21  C   UNL     1       7.381  14.893   5.786  1.00  0.00     0.014 C 
ENDBRANCH  15  20
ENDBRANCH  13  14
ENDBRANCH  12  13
ENDBRANCH   1  12
BRANCH   9  22
ATOM     22  N   UNL     1      -2.055  18.416   3.503  1.00  0.00    -0.324 N 
ATOM     23  H   UNL     1      -1.448  18.710   4.255  1.00  0.00     0.170 HD
BRANCH  22  24
ATOM     24  C   UNL     1      -2.666  19.426   2.754  1.00  0.00     0.041 A 
ATOM     25  C   UNL     1      -3.986  19.237   2.322  1.00  0.00     0.028 A 
ATOM     26  C   UNL     1      -2.043  20.624   2.401  1.00  0.00     0.028 A 
ATOM     27  C   UNL     1      -4.661  20.205   1.565  1.00  0.00     0.029 A 
ATOM     28  C   UNL     1      -2.707  21.603   1.645  1.00  0.00     0.029 A 
ATOM     29  C   UNL     1      -4.025  21.402   1.219  1.00  0.00     0.047 A 
BRANCH  29  30
ATOM     30  N   UNL     1      -4.703  22.393   0.451  1.00  0.00    -0.306 N 
ATOM     31  C   UNL     1      -4.176  23.557  -0.070  1.00  0.00     0.113 A 
ATOM     32  C   UNL     1      -6.029  22.396   0.068  1.00  0.00     0.204 A 
ATOM     33  C   UNL     1      -5.205  24.185  -0.730  1.00  0.00     0.131 A 
ATOM     34  N   UNL     1      -6.354  23.457  -0.640  1.00  0.00    -0.245 NA
ENDBRANCH  29  30
ENDBRANCH  22  24
ENDBRANCH   9  22
TORSDOF 7
ENDMDL
MODEL 6
REMARK VINA RESULT:      -8.6      2.580      3.886
REMARK SMILES C=CC(=O)N1CC(CCn2c(=O)ccc3cnc(Nc4ccc(-n5ccnc5)cc4)nc32)C1
REMARK SMILES IDX 10 1 11 2 12 3 13 4 14 5 15 6 16 7 17 8 18 9 31 10 32 11
REMARK SMILES IDX 9 12 8 13 7 14 3 15 4 16 5 17 6 18 33 19 2 20 1 21 19 22
REMARK SMILES IDX 20 24 21 25 30 26 22 27 29 28 23 29 24 30 25 31 28 32 26 33
REMARK SMILES IDX 27 34
REMARK H PARENT 19 23
ROOT
ATOM      1  N   UNL     1      -1.316  15.767   4.669  1.00  0.00    -0.293 N 
ATOM      2  C   UNL     1      -1.864  14.718   3.946  1.00  0.00     0.252 A 
ATOM      3  O   UNL     1      -1.662  13.529   4.185  1.00  0.00    -0.269 OA
ATOM      4  C   UNL     1      -2.763  15.067   2.817  1.00  0.00     0.072 A 
ATOM      5  C   UNL     1      -3.051  16.337   2.515  1.00  0.00     0.019 A 
ATOM      6  C   UNL     1      -2.464  17.399   3.315  1.00  0.00     0.036 A 
ATOM      7  C   UNL     1      -2.704  18.734   3.090  1.00  0.00     0.127 A 
ATOM      8  N   UNL     1      -2.165  19.723   3.828  1.00  0.00    -0.221 NA
ATOM      9  C   UNL     1      -1.352  19.371   4.832  1.00  0.00     0.229 A 
ATOM     10  N   UNL     1      -1.058  18.095   5.125  1.00  0.00    -0.194 NA
ATOM     11  C   UNL     1      -1.614  17.124   4.369  1.00  0.00     0.148 A 
ENDROOT
BRANCH   1  12
ATOM     12  C   UNL     1      -0.417  15.476   5.784  1.00  0.00     0.128 C 
BRANCH  12  13
ATOM     13  C   UNL     1       1.047  15.300   5.367  1.00  0.00     0.029 C 
BRANCH  13  14
ATOM     14  C   UNL     1       1.937  14.856   6.531  1.00  0.00     0.030 C 
ATOM     15  C   UNL     1       4.811  16.376   6.010  1.00  0.00     0.245 C 
ATOM     16  O   UNL     1       4.811  17.601   6.100  1.00  0.00    -0.270 OA
ATOM     17  N   UNL     1       3.880  15.572   6.606  1.00  0.00    -0.338 N 
ATOM     18  C   UNL     1       2.651  16.013   7.252  1.00  0.00     0.125 C 
ATOM     19  C   UNL     1       3.328  14.292   6.181  1.00  0.00     0.125 C 
BRANCH  15  20
ATOM     20  C   UNL     1       5.857  15.715   5.185  1.00  0.00     0.063 C 
ATOM     21  C   UNL     1       6.915  15.066   5.684  1.00  0.00     0.014 C 
ENDBRANCH  15  20
ENDBRANCH  13  14
ENDBRANCH  12  13
ENDBRANCH   1  12
BRANCH   9  22
ATOM     22  N   UNL     1      -0.747  20.314   5.658  1.00  0.00    -0.324 N 
ATOM     23  H   UNL     1      -1.459  20.773   6.208  1.00  0.00     0.170 HD
BRANCH  22  24
ATOM     24  C   UNL     1       0.573  20.725   5.864  1.00  0.00     0.041 A 
ATOM     25  C   UNL     1       1.435  19.882   6.579  1.00  0.00     0.028 A 
ATOM     26  C   UNL     1       1.096  21.934   5.404  1.00  0.00     0.028 A 
ATOM     27  C   UNL     1       2.771  20.230   6.827  1.00  0.00     0.029 A 
ATOM     28  C   UNL     1       2.432  22.295   5.643  1.00  0.00     0.029 A 
ATOM     29  C   UNL     1       3.283  21.444   6.358  1.00  0.00     0.047 A 
BRANCH  29  30
ATOM     30  N   UNL     1       4.639  21.807   6.604  1.00  0.00    -0.306 N 
ATOM     31  C   UNL     1       5.327  21.723   7.797  1.00  0.00     0.113 A 
ATOM     32  C   UNL     1       5.549  22.317   5.700  1.00  0.00     0.204 A 
ATOM     33  C   UNL     1       6.597  22.183   7.543  1.00  0.00     0.131 A 
ATOM     34  N   UNL     1       6.727  22.550   6.237  1.00  0.00    -0.245 NA
ENDBRANCH  29  30
ENDBRANCH  22  24
ENDBRANCH   9  22
TORSDOF 7
ENDMDL
MODEL 7
REMARK VINA RESULT:      -8.6      2.882      7.014
REMARK SMILES C=CC(=O)N1CC(CCn2c(=O)ccc3cnc(Nc4ccc(-n5ccnc5)cc4)nc32)C1
REMARK SMILES IDX 10 1 11 2 12 3 13 4 14 5 15 6 16 7 17 8 18 9 31 10 32 11
REMARK SMILES IDX 9 12 8 13 7 14 3 15 4 16 5 17 6 18 33 19 2 20 1 21 19 22
REMARK SMILES IDX 20 24 21 25 30 26 22 27 29 28 23 29 24 30 25 31 28 32 26 33
REMARK SMILES IDX 27 34
REMARK H PARENT 19 23
ROOT
ATOM      1  N   UNL     1      -2.922  20.572   3.878  1.00  0.00    -0.293 N 
ATOM      2  C   UNL     1      -3.812  21.039   2.923  1.00  0.00     0.252 A 
ATOM      3  O   UNL     1      -4.168  22.211   2.819  1.00  0.00    -0.269 OA
ATOM      4  C   UNL     1      -4.356  20.049   1.959  1.00  0.00     0.072 A 
ATOM      5  C   UNL     1      -3.994  18.762   1.995  1.00  0.00     0.019 A 
ATOM      6  C   UNL     1      -3.045  18.327   3.005  1.00  0.00     0.036 A 
ATOM      7  C   UNL     1      -2.604  17.030   3.118  1.00  0.00     0.127 A 
ATOM      8  N   UNL     1      -1.724  16.621   4.051  1.00  0.00    -0.221 NA
ATOM      9  C   UNL     1      -1.261  17.539   4.909  1.00  0.00     0.229 A 
ATOM     10  N   UNL     1      -1.635  18.827   4.876  1.00  0.00    -0.194 NA
ATOM     11  C   UNL     1      -2.518  19.210   3.929  1.00  0.00     0.148 A 
ENDROOT
BRANCH   1  12
ATOM     12  C   UNL     1      -2.365  21.505   4.855  1.00  0.00     0.128 C 
BRANCH  12  13
ATOM     13  C   UNL     1      -1.383  22.516   4.254  1.00  0.00     0.029 C 
BRANCH  13  14
ATOM     14  C   UNL     1      -0.697  23.373   5.321  1.00  0.00     0.030 C 
ATOM     15  C   UNL     1       1.995  21.671   6.156  1.00  0.00     0.245 C 
ATOM     16  O   UNL     1       2.858  21.547   5.290  1.00  0.00    -0.270 OA
ATOM     17  N   UNL     1       1.063  22.672   6.158  1.00  0.00    -0.338 N 
ATOM     18  C   UNL     1       0.803  23.606   5.071  1.00  0.00     0.125 C 
ATOM     19  C   UNL     1      -0.311  22.680   6.642  1.00  0.00     0.125 C 
BRANCH  15  20
ATOM     20  C   UNL     1       1.925  20.669   7.251  1.00  0.00     0.063 C 
ATOM     21  C   UNL     1       2.949  19.898   7.637  1.00  0.00     0.014 C 
ENDBRANCH  15  20
ENDBRANCH  13  14
ENDBRANCH  12  13
ENDBRANCH   1  12
BRANCH   9  22
ATOM     22  N   UNL     1      -0.345  17.222   5.907  1.00  0.00    -0.324 N 
ATOM     23  H   UNL     1      -0.808  17.262   6.803  1.00  0.00     0.170 HD
BRANCH  22  24
ATOM     24  C   UNL     1       1.011  16.880   5.913  1.00  0.00     0.041 A 
ATOM     25  C   UNL     1       1.588  16.446   7.115  1.00  0.00     0.028 A 
ATOM     26  C   UNL     1       1.839  16.944   4.792  1.00  0.00     0.028 A 
ATOM     27  C   UNL     1       2.942  16.089   7.197  1.00  0.00     0.029 A 
ATOM     28  C   UNL     1       3.196  16.589   4.859  1.00  0.00     0.029 A 
ATOM     29  C   UNL     1       3.761  16.157   6.065  1.00  0.00     0.047 A 
BRANCH  29  30
ATOM     30  N   UNL     1       5.137  15.795   6.138  1.00  0.00    -0.306 N 
ATOM     31  C   UNL     1       5.922  15.272   5.130  1.00  0.00     0.113 A 
ATOM     32  C   UNL     1       5.974  15.891   7.231  1.00  0.00     0.204 A 
ATOM     33  C   UNL     1       7.172  15.088   5.671  1.00  0.00     0.131 A 
ATOM     34  N   UNL     1       7.196  15.475   6.978  1.00  0.00    -0.245 NA
ENDBRANCH  29  30
ENDBRANCH  22  24
ENDBRANCH   9  22
TORSDOF 7
ENDMDL
MODEL 8
REMARK VINA RESULT:      -8.6      2.886      5.935
REMARK SMILES C=CC(=O)N1CC(CCn2c(=O)ccc3cnc(Nc4ccc(-n5ccnc5)cc4)nc32)C1
REMARK SMILES IDX 10 1 11 2 12 3 13 4 14 5 15 6 16 7 17 8 18 9 31 10 32 11
REMARK SMILES IDX 9 12 8 13 7 14 3 15 4 16 5 17 6 18 33 19 2 20 1 21 19 22
REMARK SMILES IDX 20 24 21 25 30 26 22 27 29 28 23 29 24 30 25 31 28 32 26 33
REMARK SMILES IDX 27 34
REMARK H PARENT 19 23
ROOT
ATOM      1  N   UNL     1      -2.057  16.398   3.994  1.00  0.00    -0.293 N 
ATOM      2  C   UNL     1      -3.042  16.063   3.077  1.00  0.00     0.252 A 
ATOM      3  O   UNL     1      -3.864  16.853   2.620  1.00  0.00    -0.269 OA
ATOM      4  C   UNL     1      -3.089  14.651   2.617  1.00  0.00     0.072 A 
ATOM      5  C   UNL     1      -2.211  13.741   3.051  1.00  0.00     0.019 A 
ATOM      6  C   UNL     1      -1.187  14.149   3.998  1.00  0.00     0.036 A 
ATOM      7  C   UNL     1      -0.235  13.292   4.497  1.00  0.00     0.127 A 
ATOM      8  N   UNL     1       0.717  13.664   5.374  1.00  0.00    -0.221 NA
ATOM      9  C   UNL     1       0.724  14.942   5.773  1.00  0.00     0.229 A 
ATOM     10  N   UNL     1      -0.166  15.849   5.343  1.00  0.00    -0.194 NA
ATOM     11  C   UNL     1      -1.109  15.448   4.463  1.00  0.00     0.148 A 
ENDROOT
BRANCH   1  12
ATOM     12  C   UNL     1      -1.974  17.773   4.485  1.00  0.00     0.128 C 
BRANCH  12  13
ATOM     13  C   UNL     1      -1.511  18.779   3.427  1.00  0.00     0.029 C 
BRANCH  13  14
ATOM     14  C   UNL     1      -2.493  19.940   3.253  1.00  0.00     0.030 C 
ATOM     15  C   UNL     1      -0.773  22.622   4.087  1.00  0.00     0.245 C 
ATOM     16  O   UNL     1       0.163  22.925   3.352  1.00  0.00    -0.270 OA
ATOM     17  N   UNL     1      -1.833  21.855   3.687  1.00  0.00    -0.338 N 
ATOM     18  C   UNL     1      -1.936  21.118   2.434  1.00  0.00     0.125 C 
ATOM     19  C   UNL     1      -2.653  20.914   4.438  1.00  0.00     0.125 C 
BRANCH  15  20
ATOM     20  C   UNL     1      -0.754  23.076   5.502  1.00  0.00     0.063 C 
ATOM     21  C   UNL     1      -0.009  22.519   6.465  1.00  0.00     0.014 C 
ENDBRANCH  15  20
ENDBRANCH  13  14
ENDBRANCH  12  13
ENDBRANCH   1  12
BRANCH   9  22
ATOM     22  N   UNL     1       1.667  15.430   6.672  1.00  0.00    -0.324 N 
ATOM     23  H   UNL     1       1.908  14.698   7.325  1.00  0.00     0.170 HD
BRANCH  22  24
ATOM     24  C   UNL     1       2.308  16.661   6.840  1.00  0.00     0.041 A 
ATOM     25  C   UNL     1       3.672  16.668   7.165  1.00  0.00     0.028 A 
ATOM     26  C   UNL     1       1.676  17.897   6.706  1.00  0.00     0.028 A 
ATOM     27  C   UNL     1       4.381  17.864   7.351  1.00  0.00     0.029 A 
ATOM     28  C   UNL     1       2.373  19.103   6.888  1.00  0.00     0.029 A 
ATOM     29  C   UNL     1       3.734  19.097   7.212  1.00  0.00     0.047 A 
BRANCH  29  30
ATOM     30  N   UNL     1       4.445  20.318   7.398  1.00  0.00    -0.306 N 
ATOM     31  C   UNL     1       4.669  21.309   6.464  1.00  0.00     0.113 A 
ATOM     32  C   UNL     1       5.059  20.765   8.550  1.00  0.00     0.204 A 
ATOM     33  C   UNL     1       5.397  22.284   7.104  1.00  0.00     0.131 A 
ATOM     34  N   UNL     1       5.635  21.939   8.400  1.00  0.00    -0.245 NA
ENDBRANCH  29  30
ENDBRANCH  22  24
ENDBRANCH   9  22
TORSDOF 7
ENDMDL
MODEL 9
REMARK VINA RESULT:      -8.3      2.833      8.673
REMARK SMILES C=CC(=O)N1CC(CCn2c(=O)ccc3cnc(Nc4ccc(-n5ccnc5)cc4)nc32)C1
REMARK SMILES IDX 10 1 11 2 12 3 13 4 14 5 15 6 16 7 17 8 18 9 31 10 32 11
REMARK SMILES IDX 9 12 8 13 7 14 3 15 4 16 5 17 6 18 33 19 2 20 1 21 19 22
REMARK SMILES IDX 20 24 21 25 30 26 22 27 29 28 23 29 24 30 25 31 28 32 26 33
REMARK SMILES IDX 27 34
REMARK H PARENT 19 23
ROOT
ATOM      1  N   UNL     1       1.630  22.617   5.270  1.00  0.00    -0.293 N 
ATOM      2  C   UNL     1       2.286  23.746   4.801  1.00  0.00     0.252 A 
ATOM      3  O   UNL     1       1.727  24.709   4.282  1.00  0.00    -0.269 OA
ATOM      4  C   UNL     1       3.763  23.785   4.954  1.00  0.00     0.072 A 
ATOM      5  C   UNL     1       4.436  22.786   5.533  1.00  0.00     0.019 A 
ATOM      6  C   UNL     1       3.699  21.634   6.022  1.00  0.00     0.036 A 
ATOM      7  C   UNL     1       4.298  20.561   6.639  1.00  0.00     0.127 A 
ATOM      8  N   UNL     1       3.621  19.491   7.096  1.00  0.00    -0.221 NA
ATOM      9  C   UNL     1       2.292  19.485   6.934  1.00  0.00     0.229 A 
ATOM     10  N   UNL     1       1.621  20.485   6.343  1.00  0.00    -0.194 NA
ATOM     11  C   UNL     1       2.326  21.547   5.895  1.00  0.00     0.148 A 
ENDROOT
BRANCH   1  12
ATOM     12  C   UNL     1       0.177  22.526   5.135  1.00  0.00     0.128 C 
BRANCH  12  13
ATOM     13  C   UNL     1      -0.294  22.253   3.703  1.00  0.00     0.029 C 
BRANCH  13  14
ATOM     14  C   UNL     1      -1.795  21.961   3.626  1.00  0.00     0.030 C 
ATOM     15  C   UNL     1      -2.054  18.745   4.282  1.00  0.00     0.245 C 
ATOM     16  O   UNL     1      -1.751  18.388   5.417  1.00  0.00    -0.270 OA
ATOM     17  N   UNL     1      -2.434  20.020   3.964  1.00  0.00    -0.338 N 
ATOM     18  C   UNL     1      -2.346  21.185   4.835  1.00  0.00     0.125 C 
ATOM     19  C   UNL     1      -2.241  20.783   2.739  1.00  0.00     0.125 C 
BRANCH  15  20
ATOM     20  C   UNL     1      -1.982  17.757   3.173  1.00  0.00     0.063 C 
ATOM     21  C   UNL     1      -2.962  16.903   2.857  1.00  0.00     0.014 C 
ENDBRANCH  15  20
ENDBRANCH  13  14
ENDBRANCH  12  13
ENDBRANCH   1  12
BRANCH   9  22
ATOM     22  N   UNL     1       1.498  18.431   7.375  1.00  0.00    -0.324 N 
ATOM     23  H   UNL     1       1.266  18.578   8.346  1.00  0.00     0.170 HD
BRANCH  22  24
ATOM     24  C   UNL     1       0.989  17.276   6.773  1.00  0.00     0.041 A 
ATOM     25  C   UNL     1       1.345  16.998   5.445  1.00  0.00     0.028 A 
ATOM     26  C   UNL     1       0.140  16.371   7.410  1.00  0.00     0.028 A 
ATOM     27  C   UNL     1       0.870  15.861   4.776  1.00  0.00     0.029 A 
ATOM     28  C   UNL     1      -0.342  15.227   6.754  1.00  0.00     0.029 A 
ATOM     29  C   UNL     1       0.020  14.961   5.428  1.00  0.00     0.047 A 
BRANCH  29  30
ATOM     30  N   UNL     1      -0.467  13.802   4.757  1.00  0.00    -0.306 N 
ATOM     31  C   UNL     1      -1.399  13.749   3.741  1.00  0.00     0.113 A 
ATOM     32  C   UNL     1      -0.108  12.489   4.983  1.00  0.00     0.204 A 
ATOM     33  C   UNL     1      -1.544  12.421   3.419  1.00  0.00     0.131 A 
ATOM     34  N   UNL     1      -0.738  11.644   4.195  1.00  0.00    -0.245 NA
ENDBRANCH  29  30
ENDBRANCH  22  24
ENDBRANCH   9  22
TORSDOF 7
ENDMDL
