MODEL 1
REMARK VINA RESULT:      -8.5      0.000      0.000
REMARK SMILES C=CC(=O)N1CC(CCn2c(=O)ccc3cnc(Nc4ccc(-n5ccnn5)cc4)nc32)C1
REMARK SMILES IDX 10 1 11 2 12 3 13 4 14 5 15 6 16 7 17 8 18 9 31 10 32 11
REMARK SMILES IDX 9 12 8 13 7 14 3 15 4 16 5 17 6 18 33 19 2 20 1 21 19 22
REMARK SMILES IDX 20 24 21 25 30 26 22 27 29 28 23 29 24 30 25 31 28 32 26 33
REMARK SMILES IDX 27 34
REMARK H PARENT 19 23
ROOT
ATOM      1  N   UNL     1      -2.189  20.822   4.370  1.00  0.00    -0.293 N 
ATOM      2  C   UNL     1      -2.967  21.508   3.450  1.00  0.00     0.252 A 
ATOM      3  O   UNL     1      -3.126  22.727   3.448  1.00  0.00    -0.269 OA
ATOM      4  C   UNL     1      -3.643  20.703   2.401  1.00  0.00     0.072 A 
ATOM      5  C   UNL     1      -3.480  19.378   2.317  1.00  0.00     0.019 A 
ATOM      6  C   UNL     1      -2.617  18.714   3.279  1.00  0.00     0.036 A 
ATOM      7  C   UNL     1      -2.361  17.364   3.262  1.00  0.00     0.127 A 
ATOM      8  N   UNL     1      -1.560  16.747   4.151  1.00  0.00    -0.221 NA
ATOM      9  C   UNL     1      -0.988  17.500   5.099  1.00  0.00     0.229 A 
ATOM     10  N   UNL     1      -1.176  18.826   5.193  1.00  0.00    -0.194 NA
ATOM     11  C   UNL     1      -1.984  19.418   4.287  1.00  0.00     0.148 A 
ENDROOT
BRANCH   1  12
ATOM     12  C   UNL     1      -1.480  21.573   5.401  1.00  0.00     0.128 C 
BRANCH  12  13
ATOM     13  C   UNL     1      -0.090  22.002   4.925  1.00  0.00     0.029 C 
BRANCH  13  14
ATOM     14  C   UNL     1       0.980  21.959   6.011  1.00  0.00     0.030 C 
ATOM     15  C   UNL     1       3.975  20.510   6.749  1.00  0.00     0.245 C 
ATOM     16  O   UNL     1       5.017  20.938   6.262  1.00  0.00    -0.270 OA
ATOM     17  N   UNL     1       2.768  21.138   6.604  1.00  0.00    -0.338 N 
ATOM     18  C   UNL     1       1.408  20.617   6.642  1.00  0.00     0.125 C 
ATOM     19  C   UNL     1       2.458  22.180   5.632  1.00  0.00     0.125 C 
BRANCH  15  20
ATOM     20  C   UNL     1       3.938  19.267   7.565  1.00  0.00     0.063 C 
ATOM     21  C   UNL     1       4.795  19.088   8.579  1.00  0.00     0.014 C 
ENDBRANCH  15  20
ENDBRANCH  13  14
ENDBRANCH  12  13
ENDBRANCH   1  12
BRANCH   9  22
ATOM     22  N   UNL     1      -0.159  16.957   6.076  1.00  0.00    -0.324 N 
ATOM     23  H   UNL     1      -0.687  16.836   6.927  1.00  0.00     0.170 HD
BRANCH  22  24
ATOM     24  C   UNL     1       1.192  16.596   6.115  1.00  0.00     0.041 A 
ATOM     25  C   UNL     1       2.002  16.914   5.013  1.00  0.00     0.028 A 
ATOM     26  C   UNL     1       1.799  15.955   7.198  1.00  0.00     0.028 A 
ATOM     27  C   UNL     1       3.367  16.597   4.984  1.00  0.00     0.030 A 
ATOM     28  C   UNL     1       3.162  15.629   7.182  1.00  0.00     0.030 A 
ATOM     29  C   UNL     1       3.954  15.948   6.073  1.00  0.00     0.066 A 
BRANCH  29  30
ATOM     30  N   UNL     1       5.332  15.612   6.074  1.00  0.00    -0.221 N 
ATOM     31  C   UNL     1       6.108  15.137   5.039  1.00  0.00     0.137 A 
ATOM     32  N   UNL     1       6.100  15.732   7.185  1.00  0.00    -0.062 NA
ATOM     33  C   UNL     1       7.360  14.986   5.582  1.00  0.00     0.157 A 
ATOM     34  N   UNL     1       7.336  15.352   6.892  1.00  0.00    -0.139 NA
ENDBRANCH  29  30
ENDBRANCH  22  24
ENDBRANCH   9  22
TORSDOF 7
ENDMDL
MODEL 2
REMARK VINA RESULT:      -8.4      3.089      7.326
REMARK SMILES C=CC(=O)N1CC(CCn2c(=O)ccc3cnc(Nc4ccc(-n5ccnn5)cc4)nc32)C1
REMARK SMILES IDX 10 1 11 2 12 3 13 4 14 5 15 6 16 7 17 8 18 9 31 10 32 11
REMARK SMILES IDX 9 12 8 13 7 14 3 15 4 16 5 17 6 18 33 19 2 20 1 21 19 22
REMARK SMILES IDX 20 24 21 25 30 26 22 27 29 28 23 29 24 30 25 31 28 32 26 33
REMARK SMILES IDX 27 34
REMARK H PARENT 19 23
ROOT
ATOM      1  N   UNL     1       0.114  14.615   4.777  1.00  0.00    -0.293 N 
ATOM      2  C   UNL     1       0.818  13.501   5.203  1.00  0.00     0.252 A 
ATOM      3  O   UNL     1       1.838  13.545   5.889  1.00  0.00    -0.269 OA
ATOM      4  C   UNL     1       0.292  12.172   4.801  1.00  0.00     0.072 A 
ATOM      5  C   UNL     1      -0.835  12.047   4.093  1.00  0.00     0.019 A 
ATOM      6  C   UNL     1      -1.561  13.246   3.710  1.00  0.00     0.036 A 
ATOM      7  C   UNL     1      -2.742  13.226   3.008  1.00  0.00     0.127 A 
ATOM      8  N   UNL     1      -3.418  14.335   2.654  1.00  0.00    -0.221 NA
ATOM      9  C   UNL     1      -2.900  15.518   3.011  1.00  0.00     0.229 A 
ATOM     10  N   UNL     1      -1.754  15.637   3.701  1.00  0.00    -0.194 NA
ATOM     11  C   UNL     1      -1.099  14.507   4.042  1.00  0.00     0.148 A 
ENDROOT
BRANCH   1  12
ATOM     12  C   UNL     1       0.574  15.942   5.173  1.00  0.00     0.128 C 
BRANCH  12  13
ATOM     13  C   UNL     1       1.532  16.535   4.136  1.00  0.00     0.029 C 
BRANCH  13  14
ATOM     14  C   UNL     1       2.755  17.218   4.739  1.00  0.00     0.030 C 
ATOM     15  C   UNL     1       4.771  17.143   7.487  1.00  0.00     0.245 C 
ATOM     16  O   UNL     1       5.653  16.297   7.595  1.00  0.00    -0.270 OA
ATOM     17  N   UNL     1       4.031  17.310   6.347  1.00  0.00    -0.338 N 
ATOM     18  C   UNL     1       2.692  17.848   6.146  1.00  0.00     0.125 C 
ATOM     19  C   UNL     1       3.934  16.361   5.244  1.00  0.00     0.125 C 
BRANCH  15  20
ATOM     20  C   UNL     1       4.437  18.082   8.590  1.00  0.00     0.063 C 
ATOM     21  C   UNL     1       4.903  19.339   8.582  1.00  0.00     0.014 C 
ENDBRANCH  15  20
ENDBRANCH  13  14
ENDBRANCH  12  13
ENDBRANCH   1  12
BRANCH   9  22
ATOM     22  N   UNL     1      -3.509  16.724   2.678  1.00  0.00    -0.324 N 
ATOM     23  H   UNL     1      -4.316  16.538   2.103  1.00  0.00     0.170 HD
BRANCH  22  24
ATOM     24  C   UNL     1      -3.220  18.066   2.945  1.00  0.00     0.041 A 
ATOM     25  C   UNL     1      -4.046  19.053   2.383  1.00  0.00     0.028 A 
ATOM     26  C   UNL     1      -2.168  18.492   3.759  1.00  0.00     0.028 A 
ATOM     27  C   UNL     1      -3.827  20.418   2.615  1.00  0.00     0.030 A 
ATOM     28  C   UNL     1      -1.935  19.853   3.998  1.00  0.00     0.030 A 
ATOM     29  C   UNL     1      -2.765  20.825   3.426  1.00  0.00     0.066 A 
BRANCH  29  30
ATOM     30  N   UNL     1      -2.517  22.199   3.679  1.00  0.00    -0.221 N 
ATOM     31  C   UNL     1      -2.844  23.293   2.909  1.00  0.00     0.137 A 
ATOM     32  N   UNL     1      -1.876  22.619   4.798  1.00  0.00    -0.062 NA
ATOM     33  C   UNL     1      -2.377  24.372   3.620  1.00  0.00     0.157 A 
ATOM     34  N   UNL     1      -1.789  23.941   4.768  1.00  0.00    -0.139 NA
ENDBRANCH  29  30
ENDBRANCH  22  24
ENDBRANCH   9  22
TORSDOF 7
ENDMDL
MODEL 3
REMARK VINA RESULT:      -8.2      2.696      5.509
REMARK SMILES C=CC(=O)N1CC(CCn2c(=O)ccc3cnc(Nc4ccc(-n5ccnn5)cc4)nc32)C1
REMARK SMILES IDX 10 1 11 2 12 3 13 4 14 5 15 6 16 7 17 8 18 9 31 10 32 11
REMARK SMILES IDX 9 12 8 13 7 14 3 15 4 16 5 17 6 18 33 19 2 20 1 21 19 22
REMARK SMILES IDX 20 24 21 25 30 26 22 27 29 28 23 29 24 30 25 31 28 32 26 33
REMARK SMILES IDX 27 34
REMARK H PARENT 19 23
ROOT
ATOM      1  N   UNL     1      -0.605  14.893   3.993  1.00  0.00    -0.293 N 
ATOM      2  C   UNL     1      -0.995  13.628   3.584  1.00  0.00     0.252 A 
ATOM      3  O   UNL     1      -0.341  12.605   3.775  1.00  0.00    -0.269 OA
ATOM      4  C   UNL     1      -2.294  13.516   2.873  1.00  0.00     0.072 A 
ATOM      5  C   UNL     1      -3.078  14.581   2.671  1.00  0.00     0.019 A 
ATOM      6  C   UNL     1      -2.642  15.878   3.160  1.00  0.00     0.036 A 
ATOM      7  C   UNL     1      -3.386  17.026   3.027  1.00  0.00     0.127 A 
ATOM      8  N   UNL     1      -2.986  18.229   3.482  1.00  0.00    -0.221 NA
ATOM      9  C   UNL     1      -1.797  18.297   4.094  1.00  0.00     0.229 A 
ATOM     10  N   UNL     1      -1.003  17.229   4.273  1.00  0.00    -0.194 NA
ATOM     11  C   UNL     1      -1.431  16.036   3.807  1.00  0.00     0.148 A 
ENDROOT
BRANCH   1  12
ATOM     12  C   UNL     1       0.650  15.050   4.722  1.00  0.00     0.128 C 
BRANCH  12  13
ATOM     13  C   UNL     1       0.527  14.546   6.162  1.00  0.00     0.029 C 
BRANCH  13  14
ATOM     14  C   UNL     1       1.843  14.541   6.934  1.00  0.00     0.030 C 
ATOM     15  C   UNL     1       4.761  16.276   7.244  1.00  0.00     0.245 C 
ATOM     16  O   UNL     1       4.809  17.310   7.902  1.00  0.00    -0.270 OA
ATOM     17  N   UNL     1       3.658  15.465   7.204  1.00  0.00    -0.338 N 
ATOM     18  C   UNL     1       3.193  14.532   6.187  1.00  0.00     0.125 C 
ATOM     19  C   UNL     1       2.315  15.828   7.641  1.00  0.00     0.125 C 
BRANCH  15  20
ATOM     20  C   UNL     1       5.915  15.798   6.437  1.00  0.00     0.063 C 
ATOM     21  C   UNL     1       7.051  15.411   7.032  1.00  0.00     0.014 C 
ENDBRANCH  15  20
ENDBRANCH  13  14
ENDBRANCH  12  13
ENDBRANCH   1  12
BRANCH   9  22
ATOM     22  N   UNL     1      -1.283  19.494   4.582  1.00  0.00    -0.324 N 
ATOM     23  H   UNL     1      -1.921  20.243   4.358  1.00  0.00     0.170 HD
BRANCH  22  24
ATOM     24  C   UNL     1      -0.109  19.846   5.257  1.00  0.00     0.041 A 
ATOM     25  C   UNL     1       0.748  18.820   5.688  1.00  0.00     0.028 A 
ATOM     26  C   UNL     1       0.282  21.162   5.512  1.00  0.00     0.028 A 
ATOM     27  C   UNL     1       1.948  19.094   6.359  1.00  0.00     0.030 A 
ATOM     28  C   UNL     1       1.477  21.451   6.184  1.00  0.00     0.030 A 
ATOM     29  C   UNL     1       2.318  20.416   6.612  1.00  0.00     0.066 A 
BRANCH  29  30
ATOM     30  N   UNL     1       3.525  20.726   7.289  1.00  0.00    -0.221 N 
ATOM     31  C   UNL     1       4.658  21.339   6.801  1.00  0.00     0.137 A 
ATOM     32  N   UNL     1       3.711  20.428   8.599  1.00  0.00    -0.062 NA
ATOM     33  C   UNL     1       5.515  21.395   7.873  1.00  0.00     0.157 A 
ATOM     34  N   UNL     1       4.920  20.833   8.960  1.00  0.00    -0.139 NA
ENDBRANCH  29  30
ENDBRANCH  22  24
ENDBRANCH   9  22
TORSDOF 7
ENDMDL
MODEL 4
REMARK VINA RESULT:      -8.0      2.644      6.898
REMARK SMILES C=CC(=O)N1CC(CCn2c(=O)ccc3cnc(Nc4ccc(-n5ccnn5)cc4)nc32)C1
REMARK SMILES IDX 10 1 11 2 12 3 13 4 14 5 15 6 16 7 17 8 18 9 31 10 32 11
REMARK SMILES IDX 9 12 8 13 7 14 3 15 4 16 5 17 6 18 33 19 2 20 1 21 19 22
REMARK SMILES IDX 20 24 21 25 30 26 22 27 29 28 23 29 24 30 25 31 28 32 26 33
REMARK SMILES IDX 27 34
REMARK H PARENT 19 23
ROOT
ATOM      1  N   UNL     1      -0.697  14.948   4.790  1.00  0.00    -0.293 N 
ATOM      2  C   UNL     1      -1.132  13.868   4.039  1.00  0.00     0.252 A 
ATOM      3  O   UNL     1      -2.204  13.827   3.438  1.00  0.00    -0.269 OA
ATOM      4  C   UNL     1      -0.231  12.690   3.961  1.00  0.00     0.072 A 
ATOM      5  C   UNL     1       0.968  12.682   4.553  1.00  0.00     0.019 A 
ATOM      6  C   UNL     1       1.395  13.859   5.291  1.00  0.00     0.036 A 
ATOM      7  C   UNL     1       2.617  13.962   5.912  1.00  0.00     0.127 A 
ATOM      8  N   UNL     1       3.017  15.052   6.594  1.00  0.00    -0.221 NA
ATOM      9  C   UNL     1       2.167  16.085   6.666  1.00  0.00     0.229 A 
ATOM     10  N   UNL     1       0.955  16.077   6.089  1.00  0.00    -0.194 NA
ATOM     11  C   UNL     1       0.582  14.971   5.411  1.00  0.00     0.148 A 
ENDROOT
BRANCH   1  12
ATOM     12  C   UNL     1      -1.535  16.141   4.872  1.00  0.00     0.128 C 
BRANCH  12  13
ATOM     13  C   UNL     1      -1.834  16.710   3.483  1.00  0.00     0.029 C 
BRANCH  13  14
ATOM     14  C   UNL     1      -1.679  18.225   3.386  1.00  0.00     0.030 C 
ATOM     15  C   UNL     1      -3.156  21.128   4.390  1.00  0.00     0.245 C 
ATOM     16  O   UNL     1      -2.987  21.558   5.527  1.00  0.00    -0.270 OA
ATOM     17  N   UNL     1      -2.476  20.051   3.889  1.00  0.00    -0.338 N 
ATOM     18  C   UNL     1      -2.827  19.101   2.842  1.00  0.00     0.125 C 
ATOM     19  C   UNL     1      -1.721  19.078   4.670  1.00  0.00     0.125 C 
BRANCH  15  20
ATOM     20  C   UNL     1      -4.112  21.759   3.441  1.00  0.00     0.063 C 
ATOM     21  C   UNL     1      -5.431  21.717   3.671  1.00  0.00     0.014 C 
ENDBRANCH  15  20
ENDBRANCH  13  14
ENDBRANCH  12  13
ENDBRANCH   1  12
BRANCH   9  22
ATOM     22  N   UNL     1       2.475  17.250   7.362  1.00  0.00    -0.324 N 
ATOM     23  H   UNL     1       2.637  17.022   8.331  1.00  0.00     0.170 HD
BRANCH  22  24
ATOM     24  C   UNL     1       2.567  18.600   7.008  1.00  0.00     0.041 A 
ATOM     25  C   UNL     1       3.828  19.218   7.050  1.00  0.00     0.028 A 
ATOM     26  C   UNL     1       1.483  19.374   6.589  1.00  0.00     0.028 A 
ATOM     27  C   UNL     1       4.002  20.563   6.697  1.00  0.00     0.030 A 
ATOM     28  C   UNL     1       1.642  20.721   6.235  1.00  0.00     0.030 A 
ATOM     29  C   UNL     1       2.905  21.324   6.288  1.00  0.00     0.066 A 
BRANCH  29  30
ATOM     30  N   UNL     1       3.048  22.688   5.925  1.00  0.00    -0.221 N 
ATOM     31  C   UNL     1       2.305  23.428   5.032  1.00  0.00     0.137 A 
ATOM     32  N   UNL     1       4.012  23.477   6.462  1.00  0.00    -0.062 NA
ATOM     33  C   UNL     1       2.864  24.682   5.067  1.00  0.00     0.157 A 
ATOM     34  N   UNL     1       3.904  24.692   5.944  1.00  0.00    -0.139 NA
ENDBRANCH  29  30
ENDBRANCH  22  24
ENDBRANCH   9  22
TORSDOF 7
ENDMDL
MODEL 5
REMARK VINA RESULT:      -8.0      2.588      5.098
REMARK SMILES C=CC(=O)N1CC(CCn2c(=O)ccc3cnc(Nc4ccc(-n5ccnn5)cc4)nc32)C1
REMARK SMILES IDX 10 1 11 2 12 3 13 4 14 5 15 6 16 7 17 8 18 9 31 10 32 11
REMARK SMILES IDX 9 12 8 13 7 14 3 15 4 16 5 17 6 18 33 19 2 20 1 21 19 22
REMARK SMILES IDX 20 24 21 25 30 26 22 27 29 28 23 29 24 30 25 31 28 32 26 33
REMARK SMILES IDX 27 34
REMARK H PARENT 19 23
ROOT
ATOM      1  N   UNL     1      -1.615  16.187   3.477  1.00  0.00    -0.293 N 
ATOM      2  C   UNL     1      -2.838  15.968   2.864  1.00  0.00     0.252 A 
ATOM      3  O   UNL     1      -3.545  16.854   2.388  1.00  0.00    -0.269 OA
ATOM      4  C   UNL     1      -3.312  14.563   2.779  1.00  0.00     0.072 A 
ATOM      5  C   UNL     1      -2.575  13.545   3.236  1.00  0.00     0.019 A 
ATOM      6  C   UNL     1      -1.279  13.826   3.830  1.00  0.00     0.036 A 
ATOM      7  C   UNL     1      -0.435  12.850   4.303  1.00  0.00     0.127 A 
ATOM      8  N   UNL     1       0.768  13.107   4.851  1.00  0.00    -0.221 NA
ATOM      9  C   UNL     1       1.151  14.387   4.935  1.00  0.00     0.229 A 
ATOM     10  N   UNL     1       0.396  15.407   4.496  1.00  0.00    -0.194 NA
ATOM     11  C   UNL     1      -0.805  15.119   3.951  1.00  0.00     0.148 A 
ENDROOT
BRANCH   1  12
ATOM     12  C   UNL     1      -1.093  17.548   3.557  1.00  0.00     0.128 C 
BRANCH  12  13
ATOM     13  C   UNL     1      -1.769  18.341   4.679  1.00  0.00     0.029 C 
BRANCH  13  14
ATOM     14  C   UNL     1      -2.196  19.749   4.274  1.00  0.00     0.030 C 
ATOM     15  C   UNL     1      -1.048  22.529   2.671  1.00  0.00     0.245 C 
ATOM     16  O   UNL     1      -1.031  22.585   1.445  1.00  0.00    -0.270 OA
ATOM     17  N   UNL     1      -1.629  21.502   3.365  1.00  0.00    -0.338 N 
ATOM     18  C   UNL     1      -1.363  20.977   4.697  1.00  0.00     0.125 C 
ATOM     19  C   UNL     1      -2.016  20.208   2.813  1.00  0.00     0.125 C 
BRANCH  15  20
ATOM     20  C   UNL     1      -0.448  23.594   3.518  1.00  0.00     0.063 C 
ATOM     21  C   UNL     1       0.852  23.562   3.837  1.00  0.00     0.014 C 
ENDBRANCH  15  20
ENDBRANCH  13  14
ENDBRANCH  12  13
ENDBRANCH   1  12
BRANCH   9  22
ATOM     22  N   UNL     1       2.366  14.762   5.501  1.00  0.00    -0.324 N 
ATOM     23  H   UNL     1       2.981  13.963   5.520  1.00  0.00     0.170 HD
BRANCH  22  24
ATOM     24  C   UNL     1       2.859  15.951   6.045  1.00  0.00     0.041 A 
ATOM     25  C   UNL     1       4.035  15.899   6.812  1.00  0.00     0.028 A 
ATOM     26  C   UNL     1       2.268  17.203   5.856  1.00  0.00     0.028 A 
ATOM     27  C   UNL     1       4.598  17.051   7.379  1.00  0.00     0.030 A 
ATOM     28  C   UNL     1       2.818  18.363   6.419  1.00  0.00     0.030 A 
ATOM     29  C   UNL     1       3.988  18.292   7.186  1.00  0.00     0.066 A 
BRANCH  29  30
ATOM     30  N   UNL     1       4.532  19.476   7.747  1.00  0.00    -0.221 N 
ATOM     31  C   UNL     1       5.283  19.624   8.893  1.00  0.00     0.137 A 
ATOM     32  N   UNL     1       4.357  20.691   7.170  1.00  0.00    -0.062 NA
ATOM     33  C   UNL     1       5.547  20.970   8.966  1.00  0.00     0.157 A 
ATOM     34  N   UNL     1       4.973  21.604   7.908  1.00  0.00    -0.139 NA
ENDBRANCH  29  30
ENDBRANCH  22  24
ENDBRANCH   9  22
TORSDOF 7
ENDMDL
MODEL 6
REMARK VINA RESULT:      -7.8      2.992      5.906
REMARK SMILES C=CC(=O)N1CC(CCn2c(=O)ccc3cnc(Nc4ccc(-n5ccnn5)cc4)nc32)C1
REMARK SMILES IDX 10 1 11 2 12 3 13 4 14 5 15 6 16 7 17 8 18 9 31 10 32 11
REMARK SMILES IDX 9 12 8 13 7 14 3 15 4 16 5 17 6 18 33 19 2 20 1 21 19 22
REMARK SMILES IDX 20 24 21 25 30 26 22 27 29 28 23 29 24 30 25 31 28 32 26 33
REMARK SMILES IDX 27 34
REMARK H PARENT 19 23
ROOT
ATOM      1  N   UNL     1       1.295  15.484   5.594  1.00  0.00    -0.293 N 
ATOM      2  C   UNL     1       0.864  14.222   5.221  1.00  0.00     0.252 A 
ATOM      3  O   UNL     1       1.500  13.187   5.412  1.00  0.00    -0.269 OA
ATOM      4  C   UNL     1      -0.459  14.127   4.552  1.00  0.00     0.072 A 
ATOM      5  C   UNL     1      -1.224  15.205   4.353  1.00  0.00     0.019 A 
ATOM      6  C   UNL     1      -0.745  16.501   4.804  1.00  0.00     0.036 A 
ATOM      7  C   UNL     1      -1.465  17.663   4.671  1.00  0.00     0.127 A 
ATOM      8  N   UNL     1      -1.024  18.865   5.090  1.00  0.00    -0.221 NA
ATOM      9  C   UNL     1       0.184  18.916   5.665  1.00  0.00     0.229 A 
ATOM     10  N   UNL     1       0.958  17.833   5.840  1.00  0.00    -0.194 NA
ATOM     11  C   UNL     1       0.489  16.642   5.411  1.00  0.00     0.148 A 
ENDROOT
BRANCH   1  12
ATOM     12  C   UNL     1       2.574  15.625   6.281  1.00  0.00     0.128 C 
BRANCH  12  13
ATOM     13  C   UNL     1       3.731  15.766   5.289  1.00  0.00     0.029 C 
BRANCH  13  14
ATOM     14  C   UNL     1       4.977  16.422   5.875  1.00  0.00     0.030 C 
ATOM     15  C   UNL     1       7.086  16.235   8.545  1.00  0.00     0.245 C 
ATOM     16  O   UNL     1       7.969  15.384   8.590  1.00  0.00    -0.270 OA
ATOM     17  N   UNL     1       6.308  16.448   7.439  1.00  0.00    -0.338 N 
ATOM     18  C   UNL     1       4.965  16.996   7.307  1.00  0.00     0.125 C 
ATOM     19  C   UNL     1       6.169  15.544   6.304  1.00  0.00     0.125 C 
BRANCH  15  20
ATOM     20  C   UNL     1       6.795  17.131   9.696  1.00  0.00     0.063 C 
ATOM     21  C   UNL     1       7.510  18.247   9.891  1.00  0.00     0.014 C 
ENDBRANCH  15  20
ENDBRANCH  13  14
ENDBRANCH  12  13
ENDBRANCH   1  12
BRANCH   9  22
ATOM     22  N   UNL     1       0.740  20.110   6.115  1.00  0.00    -0.324 N 
ATOM     23  H   UNL     1       0.017  20.812   6.166  1.00  0.00     0.170 HD
BRANCH  22  24
ATOM     24  C   UNL     1       2.034  20.511   6.460  1.00  0.00     0.041 A 
ATOM     25  C   UNL     1       2.634  21.545   5.721  1.00  0.00     0.028 A 
ATOM     26  C   UNL     1       2.768  19.964   7.515  1.00  0.00     0.028 A 
ATOM     27  C   UNL     1       3.923  22.010   6.015  1.00  0.00     0.030 A 
ATOM     28  C   UNL     1       4.059  20.417   7.819  1.00  0.00     0.030 A 
ATOM     29  C   UNL     1       4.644  21.444   7.069  1.00  0.00     0.066 A 
BRANCH  29  30
ATOM     30  N   UNL     1       5.951  21.892   7.391  1.00  0.00    -0.221 N 
ATOM     31  C   UNL     1       6.640  21.769   8.577  1.00  0.00     0.137 A 
ATOM     32  N   UNL     1       6.729  22.545   6.491  1.00  0.00    -0.062 NA
ATOM     33  C   UNL     1       7.853  22.369   8.341  1.00  0.00     0.157 A 
ATOM     34  N   UNL     1       7.888  22.837   7.064  1.00  0.00    -0.139 NA
ENDBRANCH  29  30
ENDBRANCH  22  24
ENDBRANCH   9  22
TORSDOF 7
ENDMDL
MODEL 7
REMARK VINA RESULT:      -7.7      3.135      6.446
REMARK SMILES C=CC(=O)N1CC(CCn2c(=O)ccc3cnc(Nc4ccc(-n5ccnn5)cc4)nc32)C1
REMARK SMILES IDX 10 1 11 2 12 3 13 4 14 5 15 6 16 7 17 8 18 9 31 10 32 11
REMARK SMILES IDX 9 12 8 13 7 14 3 15 4 16 5 17 6 18 33 19 2 20 1 21 19 22
REMARK SMILES IDX 20 24 21 25 30 26 22 27 29 28 23 29 24 30 25 31 28 32 26 33
REMARK SMILES IDX 27 34
REMARK H PARENT 19 23
ROOT
ATOM      1  N   UNL     1      -1.519  17.103   4.140  1.00  0.00    -0.293 N 
ATOM      2  C   UNL     1      -2.258  16.241   3.346  1.00  0.00     0.252 A 
ATOM      3  O   UNL     1      -3.321  16.537   2.804  1.00  0.00    -0.269 OA
ATOM      4  C   UNL     1      -1.715  14.874   3.142  1.00  0.00     0.072 A 
ATOM      5  C   UNL     1      -0.543  14.498   3.665  1.00  0.00     0.019 A 
ATOM      6  C   UNL     1       0.215  15.455   4.453  1.00  0.00     0.036 A 
ATOM      7  C   UNL     1       1.440  15.177   5.009  1.00  0.00     0.127 A 
ATOM      8  N   UNL     1       2.145  16.063   5.738  1.00  0.00    -0.221 NA
ATOM      9  C   UNL     1       1.613  17.278   5.923  1.00  0.00     0.229 A 
ATOM     10  N   UNL     1       0.424  17.641   5.416  1.00  0.00    -0.194 NA
ATOM     11  C   UNL     1      -0.260  16.732   4.689  1.00  0.00     0.148 A 
ENDROOT
BRANCH   1  12
ATOM     12  C   UNL     1      -1.996  18.466   4.346  1.00  0.00     0.128 C 
BRANCH  12  13
ATOM     13  C   UNL     1      -1.815  19.318   3.086  1.00  0.00     0.029 C 
BRANCH  13  14
ATOM     14  C   UNL     1      -2.999  20.228   2.777  1.00  0.00     0.030 C 
ATOM     15  C   UNL     1      -5.101  21.103   0.239  1.00  0.00     0.245 C 
ATOM     16  O   UNL     1      -6.050  20.387  -0.065  1.00  0.00    -0.270 OA
ATOM     17  N   UNL     1      -4.314  20.876   1.337  1.00  0.00    -0.338 N 
ATOM     18  C   UNL     1      -2.931  21.241   1.614  1.00  0.00     0.125 C 
ATOM     19  C   UNL     1      -4.257  19.639   2.107  1.00  0.00     0.125 C 
BRANCH  15  20
ATOM     20  C   UNL     1      -4.729  22.302  -0.558  1.00  0.00     0.063 C 
ATOM     21  C   UNL     1      -5.318  23.484  -0.329  1.00  0.00     0.014 C 
ENDBRANCH  15  20
ENDBRANCH  13  14
ENDBRANCH  12  13
ENDBRANCH   1  12
BRANCH   9  22
ATOM     22  N   UNL     1       2.251  18.259   6.676  1.00  0.00    -0.324 N 
ATOM     23  H   UNL     1       1.706  19.107   6.643  1.00  0.00     0.170 HD
BRANCH  22  24
ATOM     24  C   UNL     1       3.446  18.305   7.401  1.00  0.00     0.041 A 
ATOM     25  C   UNL     1       3.809  19.515   8.017  1.00  0.00     0.028 A 
ATOM     26  C   UNL     1       4.298  17.212   7.574  1.00  0.00     0.028 A 
ATOM     27  C   UNL     1       4.984  19.635   8.771  1.00  0.00     0.030 A 
ATOM     28  C   UNL     1       5.478  17.319   8.323  1.00  0.00     0.030 A 
ATOM     29  C   UNL     1       5.828  18.533   8.926  1.00  0.00     0.066 A 
BRANCH  29  30
ATOM     30  N   UNL     1       7.025  18.623   9.682  1.00  0.00    -0.221 N 
ATOM     31  C   UNL     1       8.026  19.567   9.609  1.00  0.00     0.137 A 
ATOM     32  N   UNL     1       7.341  17.714  10.638  1.00  0.00    -0.062 NA
ATOM     33  C   UNL     1       8.939  19.182  10.559  1.00  0.00     0.157 A 
ATOM     34  N   UNL     1       8.505  18.050  11.176  1.00  0.00    -0.139 NA
ENDBRANCH  29  30
ENDBRANCH  22  24
ENDBRANCH   9  22
TORSDOF 7
ENDMDL
MODEL 8
REMARK VINA RESULT:      -7.7      3.253      6.291
REMARK SMILES C=CC(=O)N1CC(CCn2c(=O)ccc3cnc(Nc4ccc(-n5ccnn5)cc4)nc32)C1
REMARK SMILES IDX 10 1 11 2 12 3 13 4 14 5 15 6 16 7 17 8 18 9 31 10 32 11
REMARK SMILES IDX 9 12 8 13 7 14 3 15 4 16 5 17 6 18 33 19 2 20 1 21 19 22
REMARK SMILES IDX 20 24 21 25 30 26 22 27 29 28 23 29 24 30 25 31 28 32 26 33
REMARK SMILES IDX 27 34
REMARK H PARENT 19 23
ROOT
ATOM      1  N   UNL     1      -0.886  14.475   3.624  1.00  0.00    -0.293 N 
ATOM      2  C   UNL     1      -1.765  13.438   3.356  1.00  0.00     0.252 A 
ATOM      3  O   UNL     1      -2.741  13.530   2.613  1.00  0.00    -0.269 OA
ATOM      4  C   UNL     1      -1.497  12.134   4.014  1.00  0.00     0.072 A 
ATOM      5  C   UNL     1      -0.430  11.950   4.799  1.00  0.00     0.019 A 
ATOM      6  C   UNL     1       0.487  13.058   5.011  1.00  0.00     0.036 A 
ATOM      7  C   UNL     1       1.624  12.964   5.776  1.00  0.00     0.127 A 
ATOM      8  N   UNL     1       2.477  13.988   5.972  1.00  0.00    -0.221 NA
ATOM      9  C   UNL     1       2.189  15.156   5.384  1.00  0.00     0.229 A 
ATOM     10  N   UNL     1       1.103  15.342   4.617  1.00  0.00    -0.194 NA
ATOM     11  C   UNL     1       0.267  14.296   4.438  1.00  0.00     0.148 A 
ENDROOT
BRANCH   1  12
ATOM     12  C   UNL     1      -1.091  15.766   2.976  1.00  0.00     0.128 C 
BRANCH  12  13
ATOM     13  C   UNL     1      -1.941  16.698   3.843  1.00  0.00     0.029 C 
BRANCH  13  14
ATOM     14  C   UNL     1      -1.890  18.162   3.418  1.00  0.00     0.030 C 
ATOM     15  C   UNL     1      -3.386  21.167   4.009  1.00  0.00     0.245 C 
ATOM     16  O   UNL     1      -3.092  21.831   4.998  1.00  0.00    -0.270 OA
ATOM     17  N   UNL     1      -2.718  20.029   3.647  1.00  0.00    -0.338 N 
ATOM     18  C   UNL     1      -3.150  18.870   2.877  1.00  0.00     0.125 C 
ATOM     19  C   UNL     1      -1.809  19.265   4.493  1.00  0.00     0.125 C 
BRANCH  15  20
ATOM     20  C   UNL     1      -4.497  21.556   3.099  1.00  0.00     0.063 C 
ATOM     21  C   UNL     1      -5.715  21.827   3.585  1.00  0.00     0.014 C 
ENDBRANCH  15  20
ENDBRANCH  13  14
ENDBRANCH  12  13
ENDBRANCH   1  12
BRANCH   9  22
ATOM     22  N   UNL     1       2.993  16.281   5.538  1.00  0.00    -0.324 N 
ATOM     23  H   UNL     1       2.834  16.909   4.765  1.00  0.00     0.170 HD
BRANCH  22  24
ATOM     24  C   UNL     1       3.946  16.673   6.484  1.00  0.00     0.041 A 
ATOM     25  C   UNL     1       5.136  15.934   6.583  1.00  0.00     0.028 A 
ATOM     26  C   UNL     1       3.800  17.776   7.329  1.00  0.00     0.028 A 
ATOM     27  C   UNL     1       6.142  16.274   7.497  1.00  0.00     0.030 A 
ATOM     28  C   UNL     1       4.797  18.126   8.250  1.00  0.00     0.030 A 
ATOM     29  C   UNL     1       5.975  17.375   8.339  1.00  0.00     0.066 A 
BRANCH  29  30
ATOM     30  N   UNL     1       6.974  17.744   9.276  1.00  0.00    -0.221 N 
ATOM     31  C   UNL     1       7.706  16.940  10.122  1.00  0.00     0.137 A 
ATOM     32  N   UNL     1       7.348  19.035   9.457  1.00  0.00    -0.062 NA
ATOM     33  C   UNL     1       8.528  17.805  10.803  1.00  0.00     0.157 A 
ATOM     34  N   UNL     1       8.294  19.078  10.385  1.00  0.00    -0.139 NA
ENDBRANCH  29  30
ENDBRANCH  22  24
ENDBRANCH   9  22
TORSDOF 7
ENDMDL
MODEL 9
REMARK VINA RESULT:      -7.6      3.403      8.413
REMARK SMILES C=CC(=O)N1CC(CCn2c(=O)ccc3cnc(Nc4ccc(-n5ccnn5)cc4)nc32)C1
REMARK SMILES IDX 10 1 11 2 12 3 13 4 14 5 15 6 16 7 17 8 18 9 31 10 32 11
REMARK SMILES IDX 9 12 8 13 7 14 3 15 4 16 5 17 6 18 33 19 2 20 1 21 19 22
REMARK SMILES IDX 20 24 21 25 30 26 22 27 29 28 23 29 24 30 25 31 28 32 26 33
REMARK SMILES IDX 27 34
REMARK H PARENT 19 23
ROOT
ATOM      1  N   UNL     1       0.636  14.780   4.945  1.00  0.00    -0.293 N 
ATOM      2  C   UNL     1       1.022  13.451   5.002  1.00  0.00     0.252 A 
ATOM      3  O   UNL     1       2.032  13.045   5.573  1.00  0.00    -0.269 OA
ATOM      4  C   UNL     1       0.145  12.461   4.325  1.00  0.00     0.072 A 
ATOM      5  C   UNL     1      -0.991  12.826   3.722  1.00  0.00     0.019 A 
ATOM      6  C   UNL     1      -1.373  14.228   3.731  1.00  0.00     0.036 A 
ATOM      7  C   UNL     1      -2.532  14.701   3.164  1.00  0.00     0.127 A 
ATOM      8  N   UNL     1      -2.890  15.999   3.173  1.00  0.00    -0.221 NA
ATOM      9  C   UNL     1      -2.062  16.866   3.769  1.00  0.00     0.229 A 
ATOM     10  N   UNL     1      -0.910  16.497   4.352  1.00  0.00    -0.194 NA
ATOM     11  C   UNL     1      -0.579  15.189   4.328  1.00  0.00     0.148 A 
ENDROOT
BRANCH   1  12
ATOM     12  C   UNL     1       1.449  15.786   5.621  1.00  0.00     0.128 C 
BRANCH  12  13
ATOM     13  C   UNL     1       2.349  16.533   4.633  1.00  0.00     0.029 C 
BRANCH  13  14
ATOM     14  C   UNL     1       3.685  16.977   5.222  1.00  0.00     0.030 C 
ATOM     15  C   UNL     1       6.387  15.770   6.913  1.00  0.00     0.245 C 
ATOM     16  O   UNL     1       7.274  15.158   6.325  1.00  0.00    -0.270 OA
ATOM     17  N   UNL     1       5.357  16.399   6.267  1.00  0.00    -0.338 N 
ATOM     18  C   UNL     1       4.010  16.730   6.710  1.00  0.00     0.125 C 
ATOM     19  C   UNL     1       4.966  16.192   4.877  1.00  0.00     0.125 C 
BRANCH  15  20
ATOM     20  C   UNL     1       6.365  15.898   8.395  1.00  0.00     0.063 C 
ATOM     21  C   UNL     1       7.064  16.862   9.008  1.00  0.00     0.014 C 
ENDBRANCH  15  20
ENDBRANCH  13  14
ENDBRANCH  12  13
ENDBRANCH   1  12
BRANCH   9  22
ATOM     22  N   UNL     1      -2.329  18.231   3.816  1.00  0.00    -0.324 N 
ATOM     23  H   UNL     1      -2.093  18.582   4.732  1.00  0.00     0.170 HD
BRANCH  22  24
ATOM     24  C   UNL     1      -2.858  19.151   2.906  1.00  0.00     0.041 A 
ATOM     25  C   UNL     1      -2.103  20.293   2.592  1.00  0.00     0.028 A 
ATOM     26  C   UNL     1      -4.089  18.996   2.264  1.00  0.00     0.028 A 
ATOM     27  C   UNL     1      -2.561  21.253   1.679  1.00  0.00     0.030 A 
ATOM     28  C   UNL     1      -4.561  19.949   1.350  1.00  0.00     0.030 A 
ATOM     29  C   UNL     1      -3.798  21.085   1.053  1.00  0.00     0.066 A 
BRANCH  29  30
ATOM     30  N   UNL     1      -4.290  22.039   0.126  1.00  0.00    -0.221 N 
ATOM     31  C   UNL     1      -3.669  22.565  -0.986  1.00  0.00     0.137 A 
ATOM     32  N   UNL     1      -5.527  22.582   0.242  1.00  0.00    -0.062 NA
ATOM     33  C   UNL     1      -4.588  23.434  -1.521  1.00  0.00     0.157 A 
ATOM     34  N   UNL     1      -5.715  23.432  -0.758  1.00  0.00    -0.139 NA
ENDBRANCH  29  30
ENDBRANCH  22  24
ENDBRANCH   9  22
TORSDOF 7
ENDMDL
