MODEL 1
REMARK minimizedAffinity -7.5836072
REMARK CNNscore 0.366638094
REMARK CNNaffinity 6.08148623
REMARK SMILES C/C=C\NC(=O)[C@H]1NC(=O)[C@H](CC(N)=O)CC(=O)[C@@H](NC(=O)C(=O)[C@@H](C)CC)Cc2ccc(O)c(c2)-c2cccc3c2NC(=O)[C@@]3(O)[C@@H]1O
REMARK SMILES IDX 37 1 38 2 39 3 40 4 41 5 42 6 43 7 44 8 45 9 46 10 48 12
REMARK SMILES IDX 7 13 5 14 4 15 6 16 3 18 2 19 1 20 8 21 9 22 10 23 11 25
REMARK SMILES IDX 12 26 13 27 14 28 15 29 16 32 17 33 18 34 49 36 47 38 35 40
REMARK SMILES IDX 33 41 36 42 32 43 30 44 31 45 34 46 29 48 19 49 20 51 21 52
REMARK SMILES IDX 22 53 23 55 24 56 25 57 26 58 27 59 28 60
REMARK H PARENT 43 11 4 17 8 24 14 30 14 31 49 37 47 39 34 47 20 54
REMARK Flexibility Score:   89.900
ROOT
ATOM      1  C   UNL     1       9.745 192.326  42.326  1.00  0.00     0.009 A 
ATOM      2  C   UNL     1       9.800 192.910  43.602  1.00  0.00     0.011 A 
ATOM      3  C   UNL     1      10.727 192.460  44.564  1.00  0.00     0.001 A 
ATOM      4  C   UNL     1      11.658 191.458  44.262  1.00  0.00     0.009 A 
ATOM      5  C   UNL     1      11.613 190.889  43.003  1.00  0.00     0.020 A 
ATOM      6  C   UNL     1      10.626 191.277  42.091  1.00  0.00     0.056 A 
ATOM      7  N   UNL     1      10.710 190.497  40.937  1.00  0.00    -0.322 N 
ATOM      8  C   UNL     1      11.714 189.551  41.054  1.00  0.00     0.263 C 
ATOM      9  O   UNL     1      11.925 188.613  40.309  1.00  0.00    -0.271 OA
ATOM     10  C   UNL     1      12.534 189.910  42.328  1.00  0.00     0.199 C 
ATOM     11  H   UNL     1      10.021 190.499  40.191  1.00  0.00     0.170 HD
ENDROOT
BRANCH  10  12
ATOM     12  C   UNL     1      13.896 190.499  41.836  1.00  0.00     0.192 C 
BRANCH  12  13
ATOM     13  C   UNL     1      14.922 189.469  41.274  1.00  0.00     0.204 C 
BRANCH  13  14
ATOM     14  C   UNL     1      16.391 189.857  41.536  1.00  0.00     0.249 C 
ATOM     15  N   UNL     1      16.962 190.676  40.587  1.00  0.00    -0.331 N 
ATOM     16  O   UNL     1      16.966 189.479  42.559  1.00  0.00    -0.272 OA
ATOM     17  H   UNL     1      16.393 190.915  39.776  1.00  0.00     0.169 HD
BRANCH  15  18
ATOM     18  C   UNL     1      18.218 191.207  40.702  1.00  0.00     0.081 C 
ATOM     19  C   UNL     1      18.474 192.494  40.953  1.00  0.00    -0.013 C 
ATOM     20  C   UNL     1      17.500 193.611  41.136  1.00  0.00     0.037 C 
ENDBRANCH  15  18
ENDBRANCH  13  14
BRANCH  13  21
ATOM     21  N   UNL     1      14.667 188.118  41.793  1.00  0.00    -0.342 N 
ATOM     22  C   UNL     1      14.988 186.895  41.298  1.00  0.00     0.224 C 
ATOM     23  O   UNL     1      14.357 185.928  41.743  1.00  0.00    -0.275 OA
ATOM     24  H   UNL     1      14.003 188.051  42.557  1.00  0.00     0.164 HD
BRANCH  22  25
ATOM     25  C   UNL     1      16.159 186.634  40.341  1.00  0.00     0.095 C 
BRANCH  25  26
ATOM     26  C   UNL     1      15.767 186.944  38.888  1.00  0.00     0.113 C 
BRANCH  26  27
ATOM     27  C   UNL     1      16.581 188.047  38.239  1.00  0.00     0.218 C 
ATOM     28  N   UNL     1      17.885 187.742  37.961  1.00  0.00    -0.370 N 
ATOM     29  O   UNL     1      16.108 189.139  37.949  1.00  0.00    -0.275 OA
ATOM     30  H   UNL     1      18.385 187.075  38.532  1.00  0.00     0.159 HD
ATOM     31  H   UNL     1      18.444 188.520  37.637  1.00  0.00     0.159 HD
ENDBRANCH  26  27
ENDBRANCH  25  26
BRANCH  25  32
ATOM     32  C   UNL     1      16.900 185.299  40.500  1.00  0.00     0.092 C 
BRANCH  32  33
ATOM     33  C   UNL     1      18.373 185.497  40.817  1.00  0.00     0.156 C
ATOM     34  O   UNL     1      18.776 186.600  41.187  1.00  0.00    -0.297 OA
ENDBRANCH  32  33
ENDBRANCH  25  32
ENDBRANCH  22  25
ENDBRANCH  13  21
ENDBRANCH  12  13
BRANCH  12  36
ATOM     36  O   UNL     1      13.706 191.607  40.927  1.00  0.00    -0.386 OA
ATOM     37  H   UNL     1      12.748 191.837  40.976  1.00  0.00     0.211 HD
ENDBRANCH  12  36
ENDBRANCH  10  12
BRANCH  10  38
ATOM     38  O   UNL     1      12.781 188.794  43.174  1.00  0.00    -0.373 OA
ATOM     39  H   UNL     1      13.059 188.057  42.590  1.00  0.00     0.212 HD
ENDBRANCH  10  38
BRANCH   1  40
ATOM     40  C   UNL     1       8.974 192.898  41.220  1.00  0.00     0.026 A 
ATOM     41  C   UNL     1       7.747 192.394  40.784  1.00  0.00     0.123 A 
ATOM     42  C   UNL     1       9.596 193.902  40.448  1.00  0.00     0.016 A 
ATOM     43  C   UNL     1       7.168 192.860  39.606  1.00  0.00     0.047 A 
ATOM     44  C   UNL     1       9.070 194.330  39.225  1.00  0.00    -0.045 A 
ATOM     45  C   UNL     1       7.831 193.813  38.827  1.00  0.00     0.007 A 
BRANCH  41  46
ATOM     46  O   UNL     1       7.072 191.412  41.453  1.00  0.00    -0.507 OA
ATOM     47  H   UNL     1       7.521 191.241  42.303  1.00  0.00     0.293 HD
ENDBRANCH  41  46
BRANCH  44  48
ATOM     48  C   UNL     1       9.752 195.365  38.346  1.00  0.00     0.068 C 
BRANCH  48  49
ATOM     49  C   UNL     1       9.586 196.861  38.690  1.00  0.00     0.153 C
BRANCH  49  51
ATOM     51  N   UNL     1       8.258 197.402  38.368  1.00  0.00    -0.339 N 
ATOM     52  C   UNL     1       8.042 198.511  37.573  1.00  0.00     0.288 C 
ATOM     53  O   UNL     1       8.827 199.016  36.789  1.00  0.00    -0.266 OA
ATOM     54  H   UNL     1       7.482 197.191  38.996  1.00  0.00     0.164 HD
BRANCH  52  55
ATOM     55  C   UNL     1       6.642 199.110  37.764  1.00  0.00     0.222 C 
ATOM     56  O   UNL     1       6.397 199.684  38.823  1.00  0.00    -0.288 OA
BRANCH  55  57
ATOM     57  C   UNL     1       5.659 198.934  36.624  1.00  0.00     0.063 C 
ATOM     58  C   UNL     1       5.776 200.130  35.683  1.00  0.00     0.016 C 
BRANCH  57  59
ATOM     59  C   UNL     1       5.911 197.619  35.861  1.00  0.00     0.008 C 
ATOM     60  C   UNL     1       6.095 197.843  34.366  1.00  0.00     0.004 C 
ENDBRANCH  57  59
ENDBRANCH  55  57
ENDBRANCH  52  55
ENDBRANCH  49  51
ENDBRANCH  48  49
ENDBRANCH  44  48
ENDBRANCH   1  40
TORSDOF 11
ENDMDL
MODEL 2
REMARK minimizedAffinity -7.03526449
REMARK CNNscore 0.321323514
REMARK CNNaffinity 6.08652306
REMARK SMILES C/C=C\NC(=O)[C@H]1NC(=O)[C@H](CC(N)=O)CC(=O)[C@@H](NC(=O)C(=O)[C@@H](C)CC)Cc2ccc(O)c(c2)-c2cccc3c2NC(=O)[C@@]3(O)[C@@H]1O
REMARK SMILES IDX 37 1 38 2 39 3 40 4 41 5 42 6 43 7 44 8 45 9 46 10 48 12
REMARK SMILES IDX 7 13 5 14 4 15 6 16 3 18 2 19 1 20 8 21 9 22 10 23 11 25
REMARK SMILES IDX 12 26 13 27 14 28 15 29 16 32 17 33 18 34 49 36 47 38 35 40
REMARK SMILES IDX 33 41 36 42 32 43 30 44 31 45 34 46 29 48 19 49 20 51 21 52
REMARK SMILES IDX 22 53 23 55 24 56 25 57 26 58 27 59 28 60
REMARK H PARENT 43 11 4 17 8 24 14 30 14 31 49 37 47 39 34 47 20 54
REMARK Flexibility Score:   89.900
ROOT
ATOM      1  C   UNL     1       9.898 192.278  42.481  1.00  0.00     0.009 A 
ATOM      2  C   UNL     1      10.022 192.794  43.780  1.00  0.00     0.011 A 
ATOM      3  C   UNL     1      10.967 192.263  44.683  1.00  0.00     0.001 A 
ATOM      4  C   UNL     1      11.847 191.245  44.296  1.00  0.00     0.009 A 
ATOM      5  C   UNL     1      11.735 190.743  43.013  1.00  0.00     0.020 A 
ATOM      6  C   UNL     1      10.730 191.211  42.160  1.00  0.00     0.056 A 
ATOM      7  N   UNL     1      10.742 190.488  40.966  1.00  0.00    -0.322 N 
ATOM      8  C   UNL     1      11.713 189.502  40.998  1.00  0.00     0.263 C 
ATOM      9  O   UNL     1      11.861 188.596  40.200  1.00  0.00    -0.271 OA
ATOM     10  C   UNL     1      12.593 189.766  42.255  1.00  0.00     0.199 C 
ATOM     11  H   UNL     1      10.027 190.553  40.249  1.00  0.00     0.170 HD
ENDROOT
BRANCH  10  12
ATOM     12  C   UNL     1      13.957 190.331  41.740  1.00  0.00     0.192 C 
BRANCH  12  13
ATOM     13  C   UNL     1      15.114 189.297  41.601  1.00  0.00     0.204 C 
BRANCH  13  14
ATOM     14  C   UNL     1      16.073 189.278  42.808  1.00  0.00     0.249 C 
ATOM     15  N   UNL     1      15.512 189.642  44.012  1.00  0.00    -0.331 N 
ATOM     16  O   UNL     1      17.242 188.910  42.673  1.00  0.00    -0.272 OA
ATOM     17  H   UNL     1      14.538 189.939  44.000  1.00  0.00     0.169 HD
BRANCH  15  18
ATOM     18  C   UNL     1      16.178 189.584  45.206  1.00  0.00     0.081 C 
ATOM     19  C   UNL     1      16.818 190.616  45.764  1.00  0.00    -0.013 C 
ATOM     20  C   UNL     1      16.973 192.003  45.233  1.00  0.00     0.037 C 
ENDBRANCH  15  18
ENDBRANCH  13  14
BRANCH  13  21
ATOM     21  N   UNL     1      14.599 187.942  41.357  1.00  0.00    -0.342 N 
ATOM     22  C   UNL     1      15.070 186.933  40.580  1.00  0.00     0.224 C 
ATOM     23  O   UNL     1      14.270 186.037  40.281  1.00  0.00    -0.275 OA
ATOM     24  H   UNL     1      13.654 187.760  41.677  1.00  0.00     0.164 HD
BRANCH  22  25
ATOM     25  C   UNL     1      16.541 186.773  40.175  1.00  0.00     0.095 C 
BRANCH  25  26
ATOM     26  C   UNL     1      16.746 187.103  38.687  1.00  0.00     0.113 C 
BRANCH  26  27
ATOM     27  C   UNL     1      16.579 188.569  38.340  1.00  0.00     0.218 C 
ATOM     28  N   UNL     1      17.656 189.371  38.598  1.00  0.00    -0.370 N 
ATOM     29  O   UNL     1      15.558 189.020  37.833  1.00  0.00    -0.275 OA
ATOM     30  H   UNL     1      18.289 189.145  39.353  1.00  0.00     0.159 HD
ATOM     31  H   UNL     1      17.490 190.361  38.472  1.00  0.00     0.159 HD
ENDBRANCH  26  27
ENDBRANCH  25  26
BRANCH  25  32
ATOM     32  C   UNL     1      17.245 185.482  40.614  1.00  0.00     0.092 C 
BRANCH  32  33
ATOM     33  C   UNL     1      18.310 185.741  41.667  1.00  0.00     0.156 C
ATOM     34  O   UNL     1      19.227 186.528  41.428  1.00  0.00    -0.297 OA
ENDBRANCH  32  33
ENDBRANCH  25  32
ENDBRANCH  22  25
ENDBRANCH  13  21
ENDBRANCH  12  13
BRANCH  12  36
ATOM     36  O   UNL     1      13.795 191.111  40.535  1.00  0.00    -0.386 OA
ATOM     37  H   UNL     1      12.824 191.245  40.426  1.00  0.00     0.211 HD
ENDBRANCH  12  36
ENDBRANCH  10  12
BRANCH  10  38
ATOM     38  O   UNL     1      12.829 188.601  43.036  1.00  0.00    -0.373 OA
ATOM     39  H   UNL     1      13.057 187.885  42.405  1.00  0.00     0.212 HD
ENDBRANCH  10  38
BRANCH   1  40
ATOM     40  C   UNL     1       9.110 192.932  41.435  1.00  0.00     0.026 A 
ATOM     41  C   UNL     1       7.874 192.462  40.983  1.00  0.00     0.123 A 
ATOM     42  C   UNL     1       9.719 193.992  40.730  1.00  0.00     0.016 A 
ATOM     43  C   UNL     1       7.276 193.016  39.853  1.00  0.00     0.047 A 
ATOM     44  C   UNL     1       9.173 194.512  39.553  1.00  0.00    -0.045 A 
ATOM     45  C   UNL     1       7.926 194.027  39.138  1.00  0.00     0.007 A 
BRANCH  41  46
ATOM     46  O   UNL     1       7.210 191.432  41.587  1.00  0.00    -0.507 OA
ATOM     47  H   UNL     1       7.673 191.197  42.412  1.00  0.00     0.293 HD
ENDBRANCH  41  46
BRANCH  44  48
ATOM     48  C   UNL     1       9.841 195.611  38.744  1.00  0.00     0.068 C 
BRANCH  48  49
ATOM     49  C   UNL     1      10.536 196.770  39.492  1.00  0.00     0.153 C
BRANCH  49  51
ATOM     51  N   UNL     1      10.249 196.804  40.933  1.00  0.00    -0.339 N 
ATOM     52  C   UNL     1      11.029 197.461  41.866  1.00  0.00     0.288 C 
ATOM     53  O   UNL     1      11.851 198.335  41.649  1.00  0.00    -0.266 OA
ATOM     54  H   UNL     1       9.672 196.063  41.331  1.00  0.00     0.164 HD
BRANCH  52  55
ATOM     55  C   UNL     1      10.770 196.975  43.298  1.00  0.00     0.222 C 
ATOM     56  O   UNL     1       9.736 197.338  43.854  1.00  0.00    -0.288 OA
BRANCH  55  57
ATOM     57  C   UNL     1      11.827 196.086  43.922  1.00  0.00     0.063 C 
ATOM     58  C   UNL     1      12.486 195.257  42.823  1.00  0.00     0.016 C 
BRANCH  57  59
ATOM     59  C   UNL     1      12.882 196.912  44.683  1.00  0.00     0.008 C 
ATOM     60  C   UNL     1      12.900 196.597  46.172  1.00  0.00     0.004 C 
ENDBRANCH  57  59
ENDBRANCH  55  57
ENDBRANCH  52  55
ENDBRANCH  49  51
ENDBRANCH  48  49
ENDBRANCH  44  48
ENDBRANCH   1  40
TORSDOF 11
ENDMDL
MODEL 3
REMARK minimizedAffinity -7.03909445
REMARK CNNscore 0.315591484
REMARK CNNaffinity 6.13210249
REMARK SMILES C/C=C\NC(=O)[C@H]1NC(=O)[C@H](CC(N)=O)CC(=O)[C@@H](NC(=O)C(=O)[C@@H](C)CC)Cc2ccc(O)c(c2)-c2cccc3c2NC(=O)[C@@]3(O)[C@@H]1O
REMARK SMILES IDX 37 1 38 2 39 3 40 4 41 5 42 6 43 7 44 8 45 9 46 10 48 12
REMARK SMILES IDX 7 13 5 14 4 15 6 16 3 18 2 19 1 20 8 21 9 22 10 23 11 25
REMARK SMILES IDX 12 26 13 27 14 28 15 29 16 32 17 33 18 34 49 36 47 38 35 40
REMARK SMILES IDX 33 41 36 42 32 43 30 44 31 45 34 46 29 48 19 49 20 51 21 52
REMARK SMILES IDX 22 53 23 55 24 56 25 57 26 58 27 59 28 60
REMARK H PARENT 43 11 4 17 8 24 14 30 14 31 49 37 47 39 34 47 20 54
REMARK Flexibility Score:   89.900
ROOT
ATOM      1  C   UNL     1       9.748 192.404  42.403  1.00  0.00     0.009 A 
ATOM      2  C   UNL     1       9.852 192.956  43.690  1.00  0.00     0.011 A 
ATOM      3  C   UNL     1      10.766 192.435  44.629  1.00  0.00     0.001 A 
ATOM      4  C   UNL     1      11.636 191.391  44.292  1.00  0.00     0.009 A 
ATOM      5  C   UNL     1      11.544 190.854  43.022  1.00  0.00     0.020 A 
ATOM      6  C   UNL     1      10.569 191.314  42.133  1.00  0.00     0.056 A 
ATOM      7  N   UNL     1      10.595 190.556  40.961  1.00  0.00    -0.322 N 
ATOM      8  C   UNL     1      11.547 189.555  41.044  1.00  0.00     0.263 C 
ATOM      9  O   UNL     1      11.697 188.624  40.277  1.00  0.00    -0.271 OA
ATOM     10  C   UNL     1      12.402 189.841  42.314  1.00  0.00     0.199 C 
ATOM     11  H   UNL     1       9.898 190.612  40.226  1.00  0.00     0.170 HD
ENDROOT
BRANCH  10  12
ATOM     12  C   UNL     1      13.787 190.366  41.815  1.00  0.00     0.192 C 
BRANCH  12  13
ATOM     13  C   UNL     1      14.957 189.337  41.838  1.00  0.00     0.204 C 
BRANCH  13  14
ATOM     14  C   UNL     1      15.649 189.219  43.211  1.00  0.00     0.249 C 
ATOM     15  N   UNL     1      15.283 190.171  44.138  1.00  0.00    -0.331 N 
ATOM     16  O   UNL     1      16.432 188.296  43.441  1.00  0.00    -0.272 OA
ATOM     17  H   UNL     1      14.635 190.894  43.830  1.00  0.00     0.169 HD
BRANCH  15  18
ATOM     18  C   UNL     1      15.711 190.166  45.437  1.00  0.00     0.081 C 
ATOM     19  C   UNL     1      15.019 189.651  46.458  1.00  0.00    -0.013 C 
ATOM     20  C   UNL     1      13.671 189.011  46.431  1.00  0.00     0.037 C 
ENDBRANCH  15  18
ENDBRANCH  13  14
BRANCH  13  21
ATOM     21  N   UNL     1      14.513 188.008  41.394  1.00  0.00    -0.342 N 
ATOM     22  C   UNL     1      14.987 187.186  40.423  1.00  0.00     0.224 C 
ATOM     23  O   UNL     1      14.226 186.295  40.022  1.00  0.00    -0.275 OA
ATOM     24  H   UNL     1      13.608 187.702  41.736  1.00  0.00     0.164 HD
BRANCH  22  25
ATOM     25  C   UNL     1      16.431 187.210  39.902  1.00  0.00     0.095 C 
BRANCH  25  26
ATOM     26  C   UNL     1      16.506 187.849  38.507  1.00  0.00     0.113 C 
BRANCH  26  27
ATOM     27  C   UNL     1      17.796 188.596  38.227  1.00  0.00     0.218 C 
ATOM     28  N   UNL     1      18.723 187.927  37.476  1.00  0.00    -0.370 N 
ATOM     29  O   UNL     1      18.000 189.739  38.617  1.00  0.00    -0.275 OA
ATOM     30  H   UNL     1      18.772 186.918  37.508  1.00  0.00     0.159 HD
ATOM     31  H   UNL     1      19.619 188.389  37.396  1.00  0.00     0.159 HD
ENDBRANCH  26  27
ENDBRANCH  25  26
BRANCH  25  32
ATOM     32  C   UNL     1      17.231 185.906  40.018  1.00  0.00     0.092 C 
BRANCH  32  33
ATOM     33  C   UNL     1      18.595 186.127  40.652  1.00  0.00     0.156 C
ATOM     34  O   UNL     1      18.733 186.988  41.522  1.00  0.00    -0.297 OA
ENDBRANCH  32  33
ENDBRANCH  25  32
ENDBRANCH  22  25
ENDBRANCH  13  21
ENDBRANCH  12  13
BRANCH  12  36
ATOM     36  O   UNL     1      13.684 191.021  40.530  1.00  0.00    -0.386 OA
ATOM     37  H   UNL     1      12.719 191.132  40.359  1.00  0.00     0.211 HD
ENDBRANCH  12  36
ENDBRANCH  10  12
BRANCH  10  38
ATOM     38  O   UNL     1      12.599 188.695  43.133  1.00  0.00    -0.373 OA
ATOM     39  H   UNL     1      12.829 187.957  42.528  1.00  0.00     0.212 HD
ENDBRANCH  10  38
BRANCH   1  40
ATOM     40  C   UNL     1       8.996 193.041  41.320  1.00  0.00     0.026 A 
ATOM     41  C   UNL     1       7.789 192.549  40.817  1.00  0.00     0.123 A 
ATOM     42  C   UNL     1       9.619 194.107  40.638  1.00  0.00     0.016 A 
ATOM     43  C   UNL     1       7.232 193.088  39.660  1.00  0.00     0.047 A 
ATOM     44  C   UNL     1       9.116 194.613  39.434  1.00  0.00    -0.045 A 
ATOM     45  C   UNL     1       7.897 194.106  38.968  1.00  0.00     0.007 A 
BRANCH  41  46
ATOM     46  O   UNL     1       7.115 191.511  41.397  1.00  0.00    -0.507 OA
ATOM     47  H   UNL     1       7.546 191.288  42.244  1.00  0.00     0.293 HD
ENDBRANCH  41  46
BRANCH  44  48
ATOM     48  C   UNL     1       9.801 195.718  38.650  1.00  0.00     0.068 C 
BRANCH  48  49
ATOM     49  C   UNL     1      10.604 196.791  39.418  1.00  0.00     0.153 C
BRANCH  49  51
ATOM     51  N   UNL     1      11.554 197.537  38.580  1.00  0.00    -0.339 N 
ATOM     52  C   UNL     1      12.884 197.199  38.422  1.00  0.00     0.288 C 
ATOM     53  O   UNL     1      13.401 196.122  38.667  1.00  0.00    -0.266 OA
ATOM     54  H   UNL     1      11.353 198.515  38.371  1.00  0.00     0.164 HD
BRANCH  52  55
ATOM     55  C   UNL     1      13.728 198.360  37.881  1.00  0.00     0.222 C 
ATOM     56  O   UNL     1      13.984 199.292  38.640  1.00  0.00    -0.288 OA
BRANCH  55  57
ATOM     57  C   UNL     1      14.173 198.269  36.435  1.00  0.00     0.063 C 
ATOM     58  C   UNL     1      15.451 197.438  36.364  1.00  0.00     0.016 C 
BRANCH  57  59
ATOM     59  C   UNL     1      13.077 197.652  35.546  1.00  0.00     0.008 C 
ATOM     60  C   UNL     1      13.562 197.391  34.126  1.00  0.00     0.004 C 
ENDBRANCH  57  59
ENDBRANCH  55  57
ENDBRANCH  52  55
ENDBRANCH  49  51
ENDBRANCH  48  49
ENDBRANCH  44  48
ENDBRANCH   1  40
TORSDOF 11
ENDMDL
MODEL 4
REMARK minimizedAffinity -7.43667126
REMARK CNNscore 0.308596015
REMARK CNNaffinity 5.94299459
REMARK SMILES C/C=C\NC(=O)[C@H]1NC(=O)[C@H](CC(N)=O)CC(=O)[C@@H](NC(=O)C(=O)[C@@H](C)CC)Cc2ccc(O)c(c2)-c2cccc3c2NC(=O)[C@@]3(O)[C@@H]1O
REMARK SMILES IDX 37 1 38 2 39 3 40 4 41 5 42 6 43 7 44 8 45 9 46 10 48 12
REMARK SMILES IDX 7 13 5 14 4 15 6 16 3 18 2 19 1 20 8 21 9 22 10 23 11 25
REMARK SMILES IDX 12 26 13 27 14 28 15 29 16 32 17 33 18 34 49 36 47 38 35 40
REMARK SMILES IDX 33 41 36 42 32 43 30 44 31 45 34 46 29 48 19 49 20 51 21 52
REMARK SMILES IDX 22 53 23 55 24 56 25 57 26 58 27 59 28 60
REMARK H PARENT 43 11 4 17 8 24 14 30 14 31 49 37 47 39 34 47 20 54
REMARK Flexibility Score:   89.900
ROOT
ATOM      1  C   UNL     1       9.792 192.424  42.504  1.00  0.00     0.009 A 
ATOM      2  C   UNL     1       9.866 192.961  43.799  1.00  0.00     0.011 A 
ATOM      3  C   UNL     1      10.782 192.453  44.743  1.00  0.00     0.001 A 
ATOM      4  C   UNL     1      11.684 191.437  44.403  1.00  0.00     0.009 A 
ATOM      5  C   UNL     1      11.622 190.915  43.124  1.00  0.00     0.020 A 
ATOM      6  C   UNL     1      10.644 191.361  42.229  1.00  0.00     0.056 A 
ATOM      7  N   UNL     1      10.704 190.620  41.048  1.00  0.00    -0.322 N 
ATOM      8  C   UNL     1      11.683 189.643  41.130  1.00  0.00     0.263 C 
ATOM      9  O   UNL     1      11.867 188.727  40.352  1.00  0.00    -0.271 OA
ATOM     10  C   UNL     1      12.515 189.935  42.413  1.00  0.00     0.199 C 
ATOM     11  H   UNL     1      10.015 190.667  40.305  1.00  0.00     0.170 HD
ENDROOT
BRANCH  10  12
ATOM     12  C   UNL     1      13.891 190.504  41.938  1.00  0.00     0.192 C 
BRANCH  12  13
ATOM     13  C   UNL     1      15.088 189.507  41.967  1.00  0.00     0.204 C 
BRANCH  13  14
ATOM     14  C   UNL     1      15.686 189.301  43.374  1.00  0.00     0.249 C 
ATOM     15  N   UNL     1      15.452 188.066  43.937  1.00  0.00    -0.331 N 
ATOM     16  O   UNL     1      16.360 190.185  43.903  1.00  0.00    -0.272 OA
ATOM     17  H   UNL     1      14.869 187.417  43.410  1.00  0.00     0.169 HD
BRANCH  15  18
ATOM     18  C   UNL     1      15.989 187.664  45.129  1.00  0.00     0.081 C 
ATOM     19  C   UNL     1      15.345 187.701  46.299  1.00  0.00    -0.013 C 
ATOM     20  C   UNL     1      13.961 188.189  46.576  1.00  0.00     0.037 C 
ENDBRANCH  15  18
ENDBRANCH  13  14
BRANCH  13  21
ATOM     21  N   UNL     1      14.720 188.206  41.391  1.00  0.00    -0.342 N 
ATOM     22  C   UNL     1      15.314 187.453  40.431  1.00  0.00     0.224 C 
ATOM     23  O   UNL     1      14.619 186.583  39.890  1.00  0.00    -0.275 OA
ATOM     24  H   UNL     1      13.787 187.870  41.607  1.00  0.00     0.164 HD
BRANCH  22  25
ATOM     25  C   UNL     1      16.808 187.523  40.082  1.00  0.00     0.095 C 
BRANCH  25  26
ATOM     26  C   UNL     1      17.035 187.323  38.575  1.00  0.00     0.113 C 
BRANCH  26  27
ATOM     27  C   UNL     1      18.091 188.228  37.973  1.00  0.00     0.218 C 
ATOM     28  N   UNL     1      19.163 187.599  37.402  1.00  0.00    -0.370 N 
ATOM     29  O   UNL     1      17.993 189.449  37.964  1.00  0.00    -0.275 OA
ATOM     30  H   UNL     1      19.469 186.700  37.749  1.00  0.00     0.159 HD
ATOM     31  H   UNL     1      19.912 188.213  37.110  1.00  0.00     0.159 HD
ENDBRANCH  26  27
ENDBRANCH  25  26
BRANCH  25  32
ATOM     32  C   UNL     1      17.764 186.702  40.956  1.00  0.00     0.092 C 
BRANCH  32  33
ATOM     33  C   UNL     1      17.991 185.306  40.399  1.00  0.00     0.156 C
ATOM     34  O   UNL     1      17.270 184.884  39.494  1.00  0.00    -0.297 OA
ENDBRANCH  32  33
ENDBRANCH  25  32
ENDBRANCH  22  25
ENDBRANCH  13  21
ENDBRANCH  12  13
BRANCH  12  36
ATOM     36  O   UNL     1      13.786 191.169  40.659  1.00  0.00    -0.386 OA
ATOM     37  H   UNL     1      12.821 191.254  40.476  1.00  0.00     0.211 HD
ENDBRANCH  12  36
ENDBRANCH  10  12
BRANCH  10  38
ATOM     38  O   UNL     1      12.733 188.783  43.219  1.00  0.00    -0.373 OA
ATOM     39  H   UNL     1      12.989 188.061  42.608  1.00  0.00     0.212 HD
ENDBRANCH  10  38
BRANCH   1  40
ATOM     40  C   UNL     1       9.035 193.056  41.421  1.00  0.00     0.026 A 
ATOM     41  C   UNL     1       7.908 192.486  40.824  1.00  0.00     0.123 A 
ATOM     42  C   UNL     1       9.585 194.217  40.837  1.00  0.00     0.016 A 
ATOM     43  C   UNL     1       7.359 193.043  39.672  1.00  0.00     0.047 A 
ATOM     44  C   UNL     1       9.096 194.749  39.640  1.00  0.00    -0.045 A 
ATOM     45  C   UNL     1       7.955 194.161  39.079  1.00  0.00     0.007 A 
BRANCH  41  46
ATOM     46  O   UNL     1       7.310 191.355  41.304  1.00  0.00    -0.507 OA
ATOM     47  H   UNL     1       7.719 191.119  42.158  1.00  0.00     0.293 HD
ENDBRANCH  41  46
BRANCH  44  48
ATOM     48  C   UNL     1       9.708 195.962  38.960  1.00  0.00     0.068 C 
BRANCH  48  49
ATOM     49  C   UNL     1       9.860 195.958  37.424  1.00  0.00     0.153 C
BRANCH  49  51
ATOM     51  N   UNL     1       9.122 197.036  36.750  1.00  0.00    -0.339 N 
ATOM     52  C   UNL     1       9.602 197.749  35.668  1.00  0.00     0.288 C 
ATOM     53  O   UNL     1      10.513 197.428  34.925  1.00  0.00    -0.266 OA
ATOM     54  H   UNL     1       8.392 197.523  37.270  1.00  0.00     0.164 HD
BRANCH  52  55
ATOM     55  C   UNL     1       8.853 199.071  35.455  1.00  0.00     0.222 C 
ATOM     56  O   UNL     1       9.267 200.071  36.039  1.00  0.00    -0.288 OA
BRANCH  55  57
ATOM     57  C   UNL     1       7.646 199.036  34.540  1.00  0.00     0.063 C 
ATOM     58  C   UNL     1       8.102 198.649  33.136  1.00  0.00     0.016 C 
BRANCH  57  59
ATOM     59  C   UNL     1       6.578 198.051  35.053  1.00  0.00     0.008 C 
ATOM     60  C   UNL     1       5.418 198.760  35.738  1.00  0.00     0.004 C 
ENDBRANCH  57  59
ENDBRANCH  55  57
ENDBRANCH  52  55
ENDBRANCH  49  51
ENDBRANCH  48  49
ENDBRANCH  44  48
ENDBRANCH   1  40
TORSDOF 11
ENDMDL
MODEL 5
REMARK minimizedAffinity -7.26878977
REMARK CNNscore 0.292179048
REMARK CNNaffinity 5.68233156
REMARK SMILES C/C=C\NC(=O)[C@H]1NC(=O)[C@H](CC(N)=O)CC(=O)[C@@H](NC(=O)C(=O)[C@@H](C)CC)Cc2ccc(O)c(c2)-c2cccc3c2NC(=O)[C@@]3(O)[C@@H]1O
REMARK SMILES IDX 37 1 38 2 39 3 40 4 41 5 42 6 43 7 44 8 45 9 46 10 48 12
REMARK SMILES IDX 7 13 5 14 4 15 6 16 3 18 2 19 1 20 8 21 9 22 10 23 11 25
REMARK SMILES IDX 12 26 13 27 14 28 15 29 16 32 17 33 18 34 49 36 47 38 35 40
REMARK SMILES IDX 33 41 36 42 32 43 30 44 31 45 34 46 29 48 19 49 20 51 21 52
REMARK SMILES IDX 22 53 23 55 24 56 25 57 26 58 27 59 28 60
REMARK H PARENT 43 11 4 17 8 24 14 30 14 31 49 37 47 39 34 47 20 54
REMARK Flexibility Score:   89.900
ROOT
ATOM      1  C   UNL     1      10.139 192.175  42.839  1.00  0.00     0.009 A 
ATOM      2  C   UNL     1      10.328 192.629  44.154  1.00  0.00     0.011 A 
ATOM      3  C   UNL     1      11.289 192.032  44.995  1.00  0.00     0.001 A 
ATOM      4  C   UNL     1      12.123 191.007  44.529  1.00  0.00     0.009 A 
ATOM      5  C   UNL     1      11.947 190.566  43.231  1.00  0.00     0.020 A 
ATOM      6  C   UNL     1      10.925 191.101  42.439  1.00  0.00     0.056 A 
ATOM      7  N   UNL     1      10.870 190.431  41.216  1.00  0.00    -0.322 N 
ATOM      8  C   UNL     1      11.811 189.418  41.167  1.00  0.00     0.263 C 
ATOM      9  O   UNL     1      11.901 188.544  40.325  1.00  0.00    -0.271 OA
ATOM     10  C   UNL     1      12.746 189.600  42.399  1.00  0.00     0.199 C 
ATOM     11  H   UNL     1      10.130 190.548  40.531  1.00  0.00     0.170 HD
ENDROOT
BRANCH  10  12
ATOM     12  C   UNL     1      14.105 190.148  41.855  1.00  0.00     0.192 C 
BRANCH  12  13
ATOM     13  C   UNL     1      15.202 189.081  41.560  1.00  0.00     0.204 C 
BRANCH  13  14
ATOM     14  C   UNL     1      16.245 188.939  42.687  1.00  0.00     0.249 C 
ATOM     15  N   UNL     1      17.558 189.073  42.293  1.00  0.00    -0.331 N 
ATOM     16  O   UNL     1      15.886 188.765  43.853  1.00  0.00    -0.272 OA
ATOM     17  H   UNL     1      17.735 189.202  41.299  1.00  0.00     0.169 HD
BRANCH  15  18
ATOM     18  C   UNL     1      18.612 189.081  43.166  1.00  0.00     0.081 C 
ATOM     19  C   UNL     1      19.174 190.188  43.662  1.00  0.00    -0.013 C 
ATOM     20  C   UNL     1      18.819 191.610  43.378  1.00  0.00     0.037 C 
ENDBRANCH  15  18
ENDBRANCH  13  14
BRANCH  13  21
ATOM     21  N   UNL     1      14.610 187.768  41.265  1.00  0.00    -0.342 N 
ATOM     22  C   UNL     1      15.010 186.774  40.433  1.00  0.00     0.224 C 
ATOM     23  O   UNL     1      14.158 185.936  40.110  1.00  0.00    -0.275 OA
ATOM     24  H   UNL     1      13.662 187.622  41.596  1.00  0.00     0.164 HD
BRANCH  22  25
ATOM     25  C   UNL     1      16.463 186.554  39.989  1.00  0.00     0.095 C 
BRANCH  25  26
ATOM     26  C   UNL     1      16.662 186.963  38.521  1.00  0.00     0.113 C 
BRANCH  26  27
ATOM     27  C   UNL     1      16.539 188.452  38.261  1.00  0.00     0.218 C 
ATOM     28  N   UNL     1      17.634 189.207  38.577  1.00  0.00    -0.370 N 
ATOM     29  O   UNL     1      15.536 188.960  37.772  1.00  0.00    -0.275 OA
ATOM     30  H   UNL     1      18.253 188.919  39.323  1.00  0.00     0.159 HD
ATOM     31  H   UNL     1      17.496 190.207  38.509  1.00  0.00     0.159 HD
ENDBRANCH  26  27
ENDBRANCH  25  26
BRANCH  25  32
ATOM     32  C   UNL     1      17.097 185.200  40.335  1.00  0.00     0.092 C 
BRANCH  32  33
ATOM     33  C   UNL     1      18.616 185.257  40.312  1.00  0.00     0.156 C
ATOM     34  O   UNL     1      19.217 185.123  39.246  1.00  0.00    -0.297 OA
ENDBRANCH  32  33
ENDBRANCH  25  32
ENDBRANCH  22  25
ENDBRANCH  13  21
ENDBRANCH  12  13
BRANCH  12  36
ATOM     36  O   UNL     1      13.917 191.039  40.733  1.00  0.00    -0.386 OA
ATOM     37  H   UNL     1      12.949 191.224  40.693  1.00  0.00     0.211 HD
ENDBRANCH  12  36
ENDBRANCH  10  12
BRANCH  10  38
ATOM     38  O   UNL     1      12.976 188.395  43.118  1.00  0.00    -0.373 OA
ATOM     39  H   UNL     1      13.158 187.702  42.448  1.00  0.00     0.212 HD
ENDBRANCH  10  38
BRANCH   1  40
ATOM     40  C   UNL     1       9.331 192.898  41.854  1.00  0.00     0.026 A 
ATOM     41  C   UNL     1       8.052 192.502  41.455  1.00  0.00     0.123 A 
ATOM     42  C   UNL     1       9.955 193.947  41.148  1.00  0.00     0.016 A 
ATOM     43  C   UNL     1       7.425 193.117  40.375  1.00  0.00     0.047 A 
ATOM     44  C   UNL     1       9.376 194.528  40.015  1.00  0.00    -0.045 A 
ATOM     45  C   UNL     1       8.087 194.116  39.654  1.00  0.00     0.007 A 
BRANCH  41  46
ATOM     46  O   UNL     1       7.369 191.487  42.066  1.00  0.00    -0.507 OA
ATOM     47  H   UNL     1       7.862 191.206  42.859  1.00  0.00     0.293 HD
ENDBRANCH  41  46
BRANCH  44  48
ATOM     48  C   UNL     1      10.055 195.616  39.202  1.00  0.00     0.068 C 
BRANCH  48  49
ATOM     49  C   UNL     1       9.411 196.066  37.872  1.00  0.00     0.153 C
BRANCH  49  51
ATOM     51  N   UNL     1      10.322 196.813  36.993  1.00  0.00    -0.339 N 
ATOM     52  C   UNL     1      10.031 198.045  36.438  1.00  0.00     0.288 C 
ATOM     53  O   UNL     1       9.172 198.829  36.804  1.00  0.00    -0.266 OA
ATOM     54  H   UNL     1      11.042 196.296  36.488  1.00  0.00     0.164 HD
BRANCH  52  55
ATOM     55  C   UNL     1      10.930 198.379  35.241  1.00  0.00     0.222 C 
ATOM     56  O   UNL     1      11.356 197.449  34.560  1.00  0.00    -0.288 OA
BRANCH  55  57
ATOM     57  C   UNL     1      11.231 199.845  34.997  1.00  0.00     0.063 C 
ATOM     58  C   UNL     1      12.741 200.022  34.861  1.00  0.00     0.016 C 
BRANCH  57  59
ATOM     59  C   UNL     1      10.509 200.367  33.741  1.00  0.00     0.008 C 
ATOM     60  C   UNL     1       9.173 201.019  34.070  1.00  0.00     0.004 C 
ENDBRANCH  57  59
ENDBRANCH  55  57
ENDBRANCH  52  55
ENDBRANCH  49  51
ENDBRANCH  48  49
ENDBRANCH  44  48
ENDBRANCH   1  40
TORSDOF 11
ENDMDL
MODEL 6
REMARK minimizedAffinity -6.92385483
REMARK CNNscore 0.271045208
REMARK CNNaffinity 5.39729548
REMARK SMILES C/C=C\NC(=O)[C@H]1NC(=O)[C@H](CC(N)=O)CC(=O)[C@@H](NC(=O)C(=O)[C@@H](C)CC)Cc2ccc(O)c(c2)-c2cccc3c2NC(=O)[C@@]3(O)[C@@H]1O
REMARK SMILES IDX 37 1 38 2 39 3 40 4 41 5 42 6 43 7 44 8 45 9 46 10 48 12
REMARK SMILES IDX 7 13 5 14 4 15 6 16 3 18 2 19 1 20 8 21 9 22 10 23 11 25
REMARK SMILES IDX 12 26 13 27 14 28 15 29 16 32 17 33 18 34 49 36 47 38 35 40
REMARK SMILES IDX 33 41 36 42 32 43 30 44 31 45 34 46 29 48 19 49 20 51 21 52
REMARK SMILES IDX 22 53 23 55 24 56 25 57 26 58 27 59 28 60
REMARK H PARENT 43 11 4 17 8 24 14 30 14 31 49 37 47 39 34 47 20 54
REMARK Flexibility Score:   89.900
ROOT
ATOM      1  C   UNL     1      10.094 193.277  42.333  1.00  0.00     0.009 A 
ATOM      2  C   UNL     1       9.857 193.703  43.649  1.00  0.00     0.011 A 
ATOM      3  C   UNL     1      10.451 193.041  44.743  1.00  0.00     0.001 A 
ATOM      4  C   UNL     1      11.338 191.974  44.550  1.00  0.00     0.009 A 
ATOM      5  C   UNL     1      11.583 191.560  43.254  1.00  0.00     0.020 A 
ATOM      6  C   UNL     1      10.913 192.163  42.185  1.00  0.00     0.056 A 
ATOM      7  N   UNL     1      11.234 191.512  40.993  1.00  0.00    -0.322 N 
ATOM      8  C   UNL     1      12.085 190.446  41.228  1.00  0.00     0.263 C 
ATOM      9  O   UNL     1      12.405 189.579  40.438  1.00  0.00    -0.271 OA
ATOM     10  C   UNL     1      12.563 190.559  42.706  1.00  0.00     0.199 C 
ATOM     11  H   UNL     1      10.772 191.681  40.105  1.00  0.00     0.170 HD
ENDROOT
BRANCH  10  12
ATOM     12  C   UNL     1      14.052 191.032  42.662  1.00  0.00     0.192 C 
BRANCH  12  13
ATOM     13  C   UNL     1      14.631 191.335  41.247  1.00  0.00     0.204 C 
BRANCH  13  14
ATOM     14  C   UNL     1      14.494 192.813  40.828  1.00  0.00     0.249 C 
ATOM     15  N   UNL     1      15.363 193.683  41.449  1.00  0.00    -0.331 N 
ATOM     16  O   UNL     1      13.686 193.145  39.959  1.00  0.00    -0.272 OA
ATOM     17  H   UNL     1      15.980 193.296  42.161  1.00  0.00     0.169 HD
BRANCH  15  18
ATOM     18  C   UNL     1      15.461 195.011  41.130  1.00  0.00     0.081 C 
ATOM     19  C   UNL     1      14.676 195.968  41.633  1.00  0.00    -0.013 C 
ATOM     20  C   UNL     1      13.544 195.823  42.597  1.00  0.00     0.037 C 
ENDBRANCH  15  18
ENDBRANCH  13  14
BRANCH  13  21
ATOM     21  N   UNL     1      16.036 190.919  41.140  1.00  0.00    -0.342 N 
ATOM     22  C   UNL     1      16.593 189.702  40.912  1.00  0.00     0.224 C 
ATOM     23  O   UNL     1      17.785 189.566  41.218  1.00  0.00    -0.275 OA
ATOM     24  H   UNL     1      16.727 191.597  41.445  1.00  0.00     0.164 HD
BRANCH  22  25
ATOM     25  C   UNL     1      15.883 188.552  40.185  1.00  0.00     0.095 C 
BRANCH  25  26
ATOM     26  C   UNL     1      16.257 187.193  40.799  1.00  0.00     0.113 C 
BRANCH  26  27
ATOM     27  C   UNL     1      15.546 186.006  40.179  1.00  0.00     0.218 C 
ATOM     28  N   UNL     1      16.347 185.083  39.566  1.00  0.00    -0.370 N 
ATOM     29  O   UNL     1      14.332 185.854  40.239  1.00  0.00    -0.275 OA
ATOM     30  H   UNL     1      17.223 185.368  39.147  1.00  0.00     0.159 HD
ATOM     31  H   UNL     1      15.854 184.361  39.058  1.00  0.00     0.159 HD
ENDBRANCH  26  27
ENDBRANCH  25  26
BRANCH  25  32
ATOM     32  C   UNL     1      15.937 188.562  38.652  1.00  0.00     0.092 C 
BRANCH  32  33
ATOM     33  C   UNL     1      17.345 188.328  38.128  1.00  0.00     0.156 C
ATOM     34  O   UNL     1      18.025 189.284  37.752  1.00  0.00    -0.297 OA
ENDBRANCH  32  33
ENDBRANCH  25  32
ENDBRANCH  22  25
ENDBRANCH  13  21
ENDBRANCH  12  13
BRANCH  12  36
ATOM     36  O   UNL     1      14.298 192.122  43.579  1.00  0.00    -0.386 OA
ATOM     37  H   UNL     1      13.493 192.187  44.145  1.00  0.00     0.211 HD
ENDBRANCH  12  36
ENDBRANCH  10  12
BRANCH  10  38
ATOM     38  O   UNL     1      12.478 189.334  43.423  1.00  0.00    -0.373 OA
ATOM     39  H   UNL     1      12.837 188.639  42.831  1.00  0.00     0.212 HD
ENDBRANCH  10  38
BRANCH   1  40
ATOM     40  C   UNL     1       9.699 194.057  41.159  1.00  0.00     0.026 A 
ATOM     41  C   UNL     1       8.448 193.961  40.546  1.00  0.00     0.123 A 
ATOM     42  C   UNL     1      10.702 194.812  40.515  1.00  0.00     0.016 A 
ATOM     43  C   UNL     1       8.210 194.580  39.321  1.00  0.00     0.047 A 
ATOM     44  C   UNL     1      10.508 195.379  39.251  1.00  0.00    -0.045 A 
ATOM     45  C   UNL     1       9.236 195.275  38.674  1.00  0.00     0.007 A 
BRANCH  41  46
ATOM     46  O   UNL     1       7.415 193.243  41.082  1.00  0.00    -0.507 OA
ATOM     47  H   UNL     1       7.668 192.943  41.975  1.00  0.00     0.293 HD
ENDBRANCH  41  46
BRANCH  44  48
ATOM     48  C   UNL     1      11.592 196.144  38.511  1.00  0.00     0.068 C 
BRANCH  48  49
ATOM     49  C   UNL     1      11.231 197.489  37.843  1.00  0.00     0.153 C
BRANCH  49  51
ATOM     51  N   UNL     1      12.135 197.870  36.748  1.00  0.00    -0.339 N 
ATOM     52  C   UNL     1      11.861 197.669  35.408  1.00  0.00     0.288 C 
ATOM     53  O   UNL     1      10.771 197.455  34.906  1.00  0.00    -0.266 OA
ATOM     54  H   UNL     1      13.129 197.971  36.952  1.00  0.00     0.164 HD
BRANCH  52  55
ATOM     55  C   UNL     1      13.120 197.738  34.533  1.00  0.00     0.222 C 
ATOM     56  O   UNL     1      13.331 196.814  33.750  1.00  0.00    -0.288 OA
BRANCH  55  57
ATOM     57  C   UNL     1      14.016 198.946  34.713  1.00  0.00     0.063 C 
ATOM     58  C   UNL     1      15.442 198.469  34.974  1.00  0.00     0.016 C 
BRANCH  57  59
ATOM     59  C   UNL     1      13.971 199.870  33.480  1.00  0.00     0.008 C 
ATOM     60  C   UNL     1      12.749 200.778  33.482  1.00  0.00     0.004 C 
ENDBRANCH  57  59
ENDBRANCH  55  57
ENDBRANCH  52  55
ENDBRANCH  49  51
ENDBRANCH  48  49
ENDBRANCH  44  48
ENDBRANCH   1  40
TORSDOF 11
ENDMDL
MODEL 7
REMARK minimizedAffinity -7.37442589
REMARK CNNscore 0.264923751
REMARK CNNaffinity 6.61042356
REMARK SMILES C/C=C\NC(=O)[C@H]1NC(=O)[C@H](CC(N)=O)CC(=O)[C@@H](NC(=O)C(=O)[C@@H](C)CC)Cc2ccc(O)c(c2)-c2cccc3c2NC(=O)[C@@]3(O)[C@@H]1O
REMARK SMILES IDX 37 1 38 2 39 3 40 4 41 5 42 6 43 7 44 8 45 9 46 10 48 12
REMARK SMILES IDX 7 13 5 14 4 15 6 16 3 18 2 19 1 20 8 21 9 22 10 23 11 25
REMARK SMILES IDX 12 26 13 27 14 28 15 29 16 32 17 33 18 34 49 36 47 38 35 40
REMARK SMILES IDX 33 41 36 42 32 43 30 44 31 45 34 46 29 48 19 49 20 51 21 52
REMARK SMILES IDX 22 53 23 55 24 56 25 57 26 58 27 59 28 60
REMARK H PARENT 43 11 4 17 8 24 14 30 14 31 49 37 47 39 34 47 20 54
REMARK Flexibility Score:   89.900
ROOT
ATOM      1  C   UNL     1      10.737 194.746  41.653  1.00  0.00     0.009 A 
ATOM      2  C   UNL     1      10.374 195.389  42.847  1.00  0.00     0.011 A 
ATOM      3  C   UNL     1      10.063 194.646  44.004  1.00  0.00     0.001 A 
ATOM      4  C   UNL     1      10.161 193.249  44.017  1.00  0.00     0.009 A 
ATOM      5  C   UNL     1      10.531 192.614  42.846  1.00  0.00     0.020 A 
ATOM      6  C   UNL     1      10.742 193.356  41.680  1.00  0.00     0.056 A 
ATOM      7  N   UNL     1      10.996 192.499  40.608  1.00  0.00    -0.322 N 
ATOM      8  C   UNL     1      10.924 191.176  41.009  1.00  0.00     0.263 C 
ATOM      9  O   UNL     1      10.918 190.194  40.291  1.00  0.00    -0.271 OA
ATOM     10  C   UNL     1      10.854 191.172  42.564  1.00  0.00     0.199 C 
ATOM     11  H   UNL     1      11.047 192.793  39.638  1.00  0.00     0.170 HD
ENDROOT
BRANCH  10  12
ATOM     12  C   UNL     1      12.247 190.683  43.077  1.00  0.00     0.192 C 
BRANCH  12  13
ATOM     13  C   UNL     1      13.192 190.067  42.003  1.00  0.00     0.204 C 
BRANCH  13  14
ATOM     14  C   UNL     1      14.319 191.019  41.552  1.00  0.00     0.249 C 
ATOM     15  N   UNL     1      15.420 191.060  42.379  1.00  0.00    -0.331 N 
ATOM     16  O   UNL     1      14.225 191.646  40.496  1.00  0.00    -0.272 OA
ATOM     17  H   UNL     1      15.381 190.507  43.234  1.00  0.00     0.169 HD
BRANCH  15  18
ATOM     18  C   UNL     1      16.558 191.764  42.091  1.00  0.00     0.081 C 
ATOM     19  C   UNL     1      16.787 193.022  42.478  1.00  0.00    -0.013 C 
ATOM     20  C   UNL     1      15.890 193.925  43.260  1.00  0.00     0.037 C 
ENDBRANCH  15  18
ENDBRANCH  13  14
BRANCH  13  21
ATOM     21  N   UNL     1      13.773 188.797  42.460  1.00  0.00    -0.342 N 
ATOM     22  C   UNL     1      14.154 187.689  41.774  1.00  0.00     0.224 C 
ATOM     23  O   UNL     1      14.278 186.643  42.423  1.00  0.00    -0.275 OA
ATOM     24  H   UNL     1      13.740 188.626  43.460  1.00  0.00     0.164 HD
BRANCH  22  25
ATOM     25  C   UNL     1      14.565 187.692  40.295  1.00  0.00     0.095 C 
BRANCH  25  26
ATOM     26  C   UNL     1      14.464 186.282  39.690  1.00  0.00     0.113 C 
BRANCH  26  27
ATOM     27  C   UNL     1      15.770 185.513  39.667  1.00  0.00     0.218 C 
ATOM     28  N   UNL     1      16.212 185.050  40.875  1.00  0.00    -0.370 N 
ATOM     29  O   UNL     1      16.389 185.286  38.634  1.00  0.00    -0.275 OA
ATOM     30  H   UNL     1      15.985 185.549  41.725  1.00  0.00     0.159 HD
ATOM     31  H   UNL     1      17.138 184.642  40.862  1.00  0.00     0.159 HD
ENDBRANCH  26  27
ENDBRANCH  25  26
BRANCH  25  32
ATOM     32  C   UNL     1      15.871 188.414  39.940  1.00  0.00     0.092 C 
BRANCH  32  33
ATOM     33  C   UNL     1      15.918 188.824  38.477  1.00  0.00     0.156 C
ATOM     34  O   UNL     1      17.006 188.975  37.919  1.00  0.00    -0.297 OA
ENDBRANCH  32  33
ENDBRANCH  25  32
ENDBRANCH  22  25
ENDBRANCH  13  21
ENDBRANCH  12  13
BRANCH  12  36
ATOM     36  O   UNL     1      12.921 191.699  43.855  1.00  0.00    -0.386 OA
ATOM     37  H   UNL     1      12.250 192.402  44.022  1.00  0.00     0.211 HD
ENDBRANCH  12  36
ENDBRANCH  10  12
BRANCH  10  38
ATOM     38  O   UNL     1       9.837 190.323  43.082  1.00  0.00    -0.373 OA
ATOM     39  H   UNL     1       9.894 189.482  42.580  1.00  0.00     0.212 HD
ENDBRANCH  10  38
BRANCH   1  40
ATOM     40  C   UNL     1      11.291 195.459  40.500  1.00  0.00     0.026 A 
ATOM     41  C   UNL     1      12.469 196.208  40.541  1.00  0.00     0.123 A 
ATOM     42  C   UNL     1      10.494 195.531  39.338  1.00  0.00     0.016 A 
ATOM     43  C   UNL     1      12.830 197.020  39.468  1.00  0.00     0.047 A 
ATOM     44  C   UNL     1      10.799 196.395  38.281  1.00  0.00    -0.045 A 
ATOM     45  C   UNL     1      11.996 197.120  38.351  1.00  0.00     0.007 A 
BRANCH  41  46
ATOM     46  O   UNL     1      13.302 196.217  41.625  1.00  0.00    -0.507 OA
ATOM     47  H   UNL     1      12.999 195.544  42.263  1.00  0.00     0.293 HD
ENDBRANCH  41  46
BRANCH  44  48
ATOM     48  C   UNL     1       9.924 196.535  37.047  1.00  0.00     0.068 C 
BRANCH  48  49
ATOM     49  C   UNL     1       8.408 196.269  37.174  1.00  0.00     0.153 C
BRANCH  49  51
ATOM     51  N   UNL     1       8.050 194.844  37.144  1.00  0.00    -0.339 N 
ATOM     52  C   UNL     1       7.599 194.132  38.239  1.00  0.00     0.288 C 
ATOM     53  O   UNL     1       7.140 194.589  39.272  1.00  0.00    -0.266 OA
ATOM     54  H   UNL     1       8.451 194.257  36.412  1.00  0.00     0.164 HD
BRANCH  52  55
ATOM     55  C   UNL     1       7.729 192.615  38.051  1.00  0.00     0.222 C 
ATOM     56  O   UNL     1       8.445 191.994  38.834  1.00  0.00    -0.288 OA
BRANCH  55  57
ATOM     57  C   UNL     1       6.964 191.999  36.897  1.00  0.00     0.063 C 
ATOM     58  C   UNL     1       5.835 192.943  36.493  1.00  0.00     0.016 C 
BRANCH  57  59
ATOM     59  C   UNL     1       7.887 191.714  35.697  1.00  0.00     0.008 C 
ATOM     60  C   UNL     1       7.328 190.635  34.780  1.00  0.00     0.004 C 
ENDBRANCH  57  59
ENDBRANCH  55  57
ENDBRANCH  52  55
ENDBRANCH  49  51
ENDBRANCH  48  49
ENDBRANCH  44  48
ENDBRANCH   1  40
TORSDOF 11
ENDMDL
MODEL 8
REMARK minimizedAffinity -7.336339
REMARK CNNscore 0.247576162
REMARK CNNaffinity 5.25052071
REMARK SMILES C/C=C\NC(=O)[C@H]1NC(=O)[C@H](CC(N)=O)CC(=O)[C@@H](NC(=O)C(=O)[C@@H](C)CC)Cc2ccc(O)c(c2)-c2cccc3c2NC(=O)[C@@]3(O)[C@@H]1O
REMARK SMILES IDX 37 1 38 2 39 3 40 4 41 5 42 6 43 7 44 8 45 9 46 10 48 12
REMARK SMILES IDX 7 13 5 14 4 15 6 16 3 18 2 19 1 20 8 21 9 22 10 23 11 25
REMARK SMILES IDX 12 26 13 27 14 28 15 29 16 32 17 33 18 34 49 36 47 38 35 40
REMARK SMILES IDX 33 41 36 42 32 43 30 44 31 45 34 46 29 48 19 49 20 51 21 52
REMARK SMILES IDX 22 53 23 55 24 56 25 57 26 58 27 59 28 60
REMARK H PARENT 43 11 4 17 8 24 14 30 14 31 49 37 47 39 34 47 20 54
REMARK Flexibility Score:   89.900
ROOT
ATOM      1  C   UNL     1       9.808 192.266  42.492  1.00  0.00     0.009 A 
ATOM      2  C   UNL     1       9.900 192.751  43.806  1.00  0.00     0.011 A 
ATOM      3  C   UNL     1      10.831 192.208  44.715  1.00  0.00     0.001 A 
ATOM      4  C   UNL     1      11.730 191.209  44.322  1.00  0.00     0.009 A 
ATOM      5  C   UNL     1      11.650 190.738  43.025  1.00  0.00     0.020 A 
ATOM      6  C   UNL     1      10.659 191.217  42.163  1.00  0.00     0.056 A 
ATOM      7  N   UNL     1      10.703 190.523  40.953  1.00  0.00    -0.322 N 
ATOM      8  C   UNL     1      11.685 189.547  40.981  1.00  0.00     0.263 C 
ATOM      9  O   UNL     1      11.859 188.663  40.165  1.00  0.00    -0.271 OA
ATOM     10  C   UNL     1      12.535 189.789  42.263  1.00  0.00     0.199 C 
ATOM     11  H   UNL     1      10.003 190.598  40.222  1.00  0.00     0.170 HD
ENDROOT
BRANCH  10  12
ATOM     12  C   UNL     1      13.903 190.381  41.790  1.00  0.00     0.192 C 
BRANCH  12  13
ATOM     13  C   UNL     1      14.996 189.342  41.397  1.00  0.00     0.204 C 
BRANCH  13  14
ATOM     14  C   UNL     1      14.950 188.050  42.236  1.00  0.00     0.249 C 
ATOM     15  N   UNL     1      15.504 188.145  43.494  1.00  0.00    -0.331 N 
ATOM     16  O   UNL     1      14.403 187.037  41.797  1.00  0.00    -0.272 OA
ATOM     17  H   UNL     1      15.938 189.031  43.745  1.00  0.00     0.169 HD
BRANCH  15  18
ATOM     18  C   UNL     1      15.462 187.136  44.418  1.00  0.00     0.081 C 
ATOM     19  C   UNL     1      14.841 187.217  45.598  1.00  0.00    -0.013 C 
ATOM     20  C   UNL     1      14.101 188.380  46.174  1.00  0.00     0.037 C 
ENDBRANCH  15  18
ENDBRANCH  13  14
BRANCH  13  21
ATOM     21  N   UNL     1      14.930 189.006  39.968  1.00  0.00    -0.342 N 
ATOM     22  C   UNL     1      15.910 188.749  39.064  1.00  0.00     0.224 C 
ATOM     23  O   UNL     1      15.606 188.842  37.867  1.00  0.00    -0.275 OA
ATOM     24  H   UNL     1      14.031 189.144  39.518  1.00  0.00     0.164 HD
BRANCH  22  25
ATOM     25  C   UNL     1      17.305 188.226  39.431  1.00  0.00     0.095 C 
BRANCH  25  26
ATOM     26  C   UNL     1      18.357 189.344  39.341  1.00  0.00     0.113 C 
BRANCH  26  27
ATOM     27  C   UNL     1      18.294 190.358  40.466  1.00  0.00     0.218 C 
ATOM     28  N   UNL     1      18.857 189.973  41.651  1.00  0.00    -0.370 N 
ATOM     29  O   UNL     1      17.798 191.470  40.330  1.00  0.00    -0.275 OA
ATOM     30  H   UNL     1      18.876 188.996  41.911  1.00  0.00     0.159 HD
ATOM     31  H   UNL     1      18.705 190.610  42.422  1.00  0.00     0.159 HD
ENDBRANCH  26  27
ENDBRANCH  25  26
BRANCH  25  32
ATOM     32  C   UNL     1      17.751 186.916  38.770  1.00  0.00     0.092 C 
BRANCH  32  33
ATOM     33  C   UNL     1      19.119 187.040  38.120  1.00  0.00     0.156 C
ATOM     34  O   UNL     1      19.214 187.481  36.974  1.00  0.00    -0.297 OA
ENDBRANCH  32  33
ENDBRANCH  25  32
ENDBRANCH  22  25
ENDBRANCH  13  21
ENDBRANCH  12  13
BRANCH  12  36
ATOM     36  O   UNL     1      13.730 191.383  40.763  1.00  0.00    -0.386 OA
ATOM     37  H   UNL     1      12.764 191.578  40.733  1.00  0.00     0.211 HD
ENDBRANCH  12  36
ENDBRANCH  10  12
BRANCH  10  38
ATOM     38  O   UNL     1      12.768 188.608  43.019  1.00  0.00    -0.373 OA
ATOM     39  H   UNL     1      13.017 187.911  42.376  1.00  0.00     0.212 HD
ENDBRANCH  10  38
BRANCH   1  40
ATOM     40  C   UNL     1       9.034 192.938  41.446  1.00  0.00     0.026 A 
ATOM     41  C   UNL     1       7.802 192.480  40.974  1.00  0.00     0.123 A 
ATOM     42  C   UNL     1       9.657 194.003  40.762  1.00  0.00     0.016 A 
ATOM     43  C   UNL     1       7.219 193.051  39.846  1.00  0.00     0.047 A 
ATOM     44  C   UNL     1       9.126 194.541  39.585  1.00  0.00    -0.045 A 
ATOM     45  C   UNL     1       7.881 194.067  39.150  1.00  0.00     0.007 A 
BRANCH  41  46
ATOM     46  O   UNL     1       7.125 191.445  41.558  1.00  0.00    -0.507 OA
ATOM     47  H   UNL     1       7.579 191.198  42.386  1.00  0.00     0.293 HD
ENDBRANCH  41  46
BRANCH  44  48
ATOM     48  C   UNL     1       9.808 195.646  38.797  1.00  0.00     0.068 C 
BRANCH  48  49
ATOM     49  C   UNL     1       9.218 196.062  37.432  1.00  0.00     0.153 C
BRANCH  49  51
ATOM     51  N   UNL     1       8.673 197.427  37.410  1.00  0.00    -0.339 N 
ATOM     52  C   UNL     1       7.354 197.742  37.677  1.00  0.00     0.288 C 
ATOM     53  O   UNL     1       6.536 197.044  38.252  1.00  0.00    -0.266 OA
ATOM     54  H   UNL     1       9.160 198.136  36.862  1.00  0.00     0.164 HD
BRANCH  52  55
ATOM     55  C   UNL     1       6.963 199.132  37.159  1.00  0.00     0.222 C 
ATOM     56  O   UNL     1       7.149 200.098  37.896  1.00  0.00    -0.288 OA
BRANCH  55  57
ATOM     57  C   UNL     1       6.364 199.201  35.768  1.00  0.00     0.063 C 
ATOM     58  C   UNL     1       7.493 199.313  34.749  1.00  0.00     0.016 C 
BRANCH  57  59
ATOM     59  C   UNL     1       5.486 197.970  35.471  1.00  0.00     0.008 C 
ATOM     60  C   UNL     1       4.004 198.254  35.673  1.00  0.00     0.004 C 
ENDBRANCH  57  59
ENDBRANCH  55  57
ENDBRANCH  52  55
ENDBRANCH  49  51
ENDBRANCH  48  49
ENDBRANCH  44  48
ENDBRANCH   1  40
TORSDOF 11
ENDMDL
MODEL 9
REMARK minimizedAffinity -6.80846167
REMARK CNNscore 0.238493845
REMARK CNNaffinity 5.61255884
REMARK SMILES C/C=C\NC(=O)[C@H]1NC(=O)[C@H](CC(N)=O)CC(=O)[C@@H](NC(=O)C(=O)[C@@H](C)CC)Cc2ccc(O)c(c2)-c2cccc3c2NC(=O)[C@@]3(O)[C@@H]1O
REMARK SMILES IDX 37 1 38 2 39 3 40 4 41 5 42 6 43 7 44 8 45 9 46 10 48 12
REMARK SMILES IDX 7 13 5 14 4 15 6 16 3 18 2 19 1 20 8 21 9 22 10 23 11 25
REMARK SMILES IDX 12 26 13 27 14 28 15 29 16 32 17 33 18 34 49 36 47 38 35 40
REMARK SMILES IDX 33 41 36 42 32 43 30 44 31 45 34 46 29 48 19 49 20 51 21 52
REMARK SMILES IDX 22 53 23 55 24 56 25 57 26 58 27 59 28 60
REMARK H PARENT 43 11 4 17 8 24 14 30 14 31 49 37 47 39 34 47 20 54
REMARK Flexibility Score:   89.900
ROOT
ATOM      1  C   UNL     1       9.685 193.753  41.988  1.00  0.00     0.009 A 
ATOM      2  C   UNL     1       9.749 194.287  43.284  1.00  0.00     0.011 A 
ATOM      3  C   UNL     1      10.358 193.570  44.334  1.00  0.00     0.001 A 
ATOM      4  C   UNL     1      10.967 192.329  44.106  1.00  0.00     0.009 A 
ATOM      5  C   UNL     1      10.916 191.806  42.828  1.00  0.00     0.020 A 
ATOM      6  C   UNL     1      10.225 192.483  41.818  1.00  0.00     0.056 A 
ATOM      7  N   UNL     1      10.215 191.718  40.651  1.00  0.00    -0.322 N 
ATOM      8  C   UNL     1      10.856 190.507  40.851  1.00  0.00     0.263 C 
ATOM      9  O   UNL     1      10.865 189.552  40.098  1.00  0.00    -0.271 OA
ATOM     10  C   UNL     1      11.572 190.591  42.231  1.00  0.00     0.199 C 
ATOM     11  H   UNL     1       9.665 191.936  39.826  1.00  0.00     0.170 HD
ENDROOT
BRANCH  10  12
ATOM     12  C   UNL     1      13.101 190.730  41.937  1.00  0.00     0.192 C 
BRANCH  12  13
ATOM     13  C   UNL     1      13.953 189.440  42.129  1.00  0.00     0.204 C 
BRANCH  13  14
ATOM     14  C   UNL     1      13.897 188.869  43.560  1.00  0.00     0.249 C 
ATOM     15  N   UNL     1      13.977 189.804  44.569  1.00  0.00    -0.331 N 
ATOM     16  O   UNL     1      13.742 187.661  43.747  1.00  0.00    -0.272 OA
ATOM     17  H   UNL     1      14.116 190.775  44.295  1.00  0.00     0.169 HD
BRANCH  15  18
ATOM     18  C   UNL     1      13.839 189.498  45.896  1.00  0.00     0.081 C 
ATOM     19  C   UNL     1      13.625 190.398  46.860  1.00  0.00    -0.013 C 
ATOM     20  C   UNL     1      13.514 191.882  46.731  1.00  0.00     0.037 C 
ENDBRANCH  15  18
ENDBRANCH  13  14
BRANCH  13  21
ATOM     21  N   UNL     1      13.574 188.396  41.166  1.00  0.00    -0.342 N 
ATOM     22  C   UNL     1      14.243 187.870  40.108  1.00  0.00     0.224 C 
ATOM     23  O   UNL     1      13.569 187.266  39.263  1.00  0.00    -0.275 OA
ATOM     24  H   UNL     1      12.597 188.124  41.165  1.00  0.00     0.164 HD
BRANCH  22  25
ATOM     25  C   UNL     1      15.772 187.861  39.974  1.00  0.00     0.095 C 
BRANCH  25  26
ATOM     26  C   UNL     1      16.205 188.252  38.552  1.00  0.00     0.113 C 
BRANCH  26  27
ATOM     27  C   UNL     1      17.513 189.016  38.481  1.00  0.00     0.218 C 
ATOM     28  N   UNL     1      17.732 189.921  39.482  1.00  0.00    -0.370 N 
ATOM     29  O   UNL     1      18.347 188.825  37.604  1.00  0.00    -0.275 OA
ATOM     30  H   UNL     1      16.951 190.383  39.930  1.00  0.00     0.159 HD
ATOM     31  H   UNL     1      18.550 190.503  39.359  1.00  0.00     0.159 HD
ENDBRANCH  26  27
ENDBRANCH  25  26
BRANCH  25  32
ATOM     32  C   UNL     1      16.508 186.630  40.518  1.00  0.00     0.092 C 
BRANCH  32  33
ATOM     33  C   UNL     1      16.959 185.696  39.407  1.00  0.00     0.156 C
ATOM     34  O   UNL     1      16.185 184.840  38.976  1.00  0.00    -0.297 OA
ENDBRANCH  32  33
ENDBRANCH  25  32
ENDBRANCH  22  25
ENDBRANCH  13  21
ENDBRANCH  12  13
BRANCH  12  36
ATOM     36  O   UNL     1      13.349 191.342  40.651  1.00  0.00    -0.386 OA
ATOM     37  H   UNL     1      12.478 191.688  40.343  1.00  0.00     0.211 HD
ENDBRANCH  12  36
ENDBRANCH  10  12
BRANCH  10  38
ATOM     38  O   UNL     1      11.351 189.451  43.052  1.00  0.00    -0.373 OA
ATOM     39  H   UNL     1      11.464 188.666  42.475  1.00  0.00     0.212 HD
ENDBRANCH  10  38
BRANCH   1  40
ATOM     40  C   UNL     1       9.279 194.538  40.820  1.00  0.00     0.026 A 
ATOM     41  C   UNL     1       8.174 194.233  40.022  1.00  0.00     0.123 A 
ATOM     42  C   UNL     1      10.159 195.551  40.383  1.00  0.00     0.016 A 
ATOM     43  C   UNL     1       7.964 194.900  38.818  1.00  0.00     0.047 A 
ATOM     44  C   UNL     1      10.008 196.182  39.144  1.00  0.00    -0.045 A 
ATOM     45  C   UNL     1       8.880 195.860  38.378  1.00  0.00     0.007 A 
BRANCH  41  46
ATOM     46  O   UNL     1       7.272 193.260  40.351  1.00  0.00    -0.507 OA
ATOM     47  H   UNL     1       7.468 192.938  41.251  1.00  0.00     0.293 HD
ENDBRANCH  41  46
BRANCH  44  48
ATOM     48  C   UNL     1      10.976 197.231  38.624  1.00  0.00     0.068 C 
BRANCH  48  49
ATOM     49  C   UNL     1      11.331 197.239  37.122  1.00  0.00     0.153 C
BRANCH  49  51
ATOM     51  N   UNL     1      12.715 197.648  36.840  1.00  0.00    -0.339 N 
ATOM     52  C   UNL     1      13.287 197.639  35.582  1.00  0.00     0.288 C 
ATOM     53  O   UNL     1      12.705 197.607  34.512  1.00  0.00    -0.266 OA
ATOM     54  H   UNL     1      13.395 197.615  37.599  1.00  0.00     0.164 HD
BRANCH  52  55
ATOM     55  C   UNL     1      14.821 197.674  35.632  1.00  0.00     0.222 C 
ATOM     56  O   UNL     1      15.398 196.807  36.285  1.00  0.00    -0.288 OA
BRANCH  55  57
ATOM     57  C   UNL     1      15.507 198.791  34.872  1.00  0.00     0.063 C 
ATOM     58  C   UNL     1      15.254 200.109  35.597  1.00  0.00     0.016 C 
BRANCH  57  59
ATOM     59  C   UNL     1      17.019 198.531  34.731  1.00  0.00     0.008 C 
ATOM     60  C   UNL     1      17.726 199.633  33.955  1.00  0.00     0.004 C 
ENDBRANCH  57  59
ENDBRANCH  55  57
ENDBRANCH  52  55
ENDBRANCH  49  51
ENDBRANCH  48  49
ENDBRANCH  44  48
ENDBRANCH   1  40
TORSDOF 11
ENDMDL
