MODEL 1
REMARK minimizedAffinity -6.1629281
REMARK CNNscore 0.722267151
REMARK CNNaffinity 6.1047554
REMARK SMILES C=CCN1CCN(c2ccn(CC(=O)N[C@@H](CC(C)C)B(O)O)c(=O)c2)CC1
REMARK SMILES IDX 13 1 14 2 15 3 12 5 11 6 8 7 9 8 26 9 10 10 24 11 25 12 7 13
REMARK SMILES IDX 4 14 5 15 28 16 6 17 27 18 3 19 2 20 1 21 16 22 17 23 18 24
REMARK SMILES IDX 19 25 20 26 21 27 22 28 23 30
REMARK H PARENT 15 4 22 29 23 31
ROOT
ATOM      1  C   UNL     1       8.327 192.137  40.236  1.00  0.00     0.239 C 
ATOM      2  O   UNL     1       9.318 191.519  39.772  1.00  0.00    -0.273 OA
ATOM      3  N   UNL     1       7.608 192.990  39.358  1.00  0.00    -0.353 N 
ATOM      4  H   UNL     1       6.762 193.551  39.665  1.00  0.00     0.163 HD
ENDROOT
BRANCH   1   5
ATOM      5  C   UNL     1       7.888 192.016  41.631  1.00  0.00     0.225 C 
BRANCH   5   6
ATOM      6  N   UNL     1       8.903 192.311  42.591  1.00  0.00    -0.306 N 
ATOM      7  C   UNL     1      10.910 192.927  44.489  1.00  0.00     0.044 A 
ATOM      8  C   UNL     1      10.070 193.896  43.984  1.00  0.00     0.044 A 
ATOM      9  C   UNL     1      10.692 191.634  43.994  1.00  0.00     0.097 A 
ATOM     10  C   UNL     1       9.090 193.540  43.044  1.00  0.00     0.092 A 
ATOM     11  C   UNL     1       9.713 191.348  43.072  1.00  0.00     0.253 A 
ATOM     12  O   UNL     1       9.564 190.155  42.660  1.00  0.00    -0.269 OA
BRANCH   7  13
ATOM     13  N   UNL     1      11.919 193.179  45.437  1.00  0.00    -0.369 N 
ATOM     14  N   UNL     1      12.590 194.406  47.748  1.00  0.00    -0.296 NA
ATOM     15  C   UNL     1      13.496 194.502  46.602  1.00  0.00     0.106 C 
ATOM     16  C   UNL     1      12.046 193.054  47.827  1.00  0.00     0.106 C 
ATOM     17  C   UNL     1      12.731 194.388  45.327  1.00  0.00     0.132 C 
ATOM     18  C   UNL     1      12.200 192.293  46.511  1.00  0.00     0.132 C 
BRANCH  14  19
ATOM     19  C   UNL     1      11.469 195.308  47.554  1.00  0.00     0.111 C 
BRANCH  19  20
ATOM     20  C   UNL     1      11.735 196.588  48.218  1.00  0.00    -0.019 C 
ATOM     21  C   UNL     1      10.831 197.510  48.450  1.00  0.00     0.005 C 
ENDBRANCH  19  20
ENDBRANCH  14  19
ENDBRANCH   7  13
ENDBRANCH   5   6
ENDBRANCH   1   5
BRANCH   3  22
ATOM     22  C   UNL     1       8.000 193.135  37.989  1.00  0.00     0.114 C 
BRANCH  22  23
ATOM     23  C   UNL     1       6.949 192.689  37.009  1.00  0.00     0.025 C 
BRANCH  23  24
ATOM     24  C   UNL     1       7.501 191.874  35.882  1.00  0.00    -0.016 C 
ATOM     25  C   UNL     1       8.089 190.560  36.260  1.00  0.00     0.007 C 
ATOM     26  C   UNL     1       6.467 191.624  34.798  1.00  0.00     0.007 C 
ENDBRANCH  23  24
ENDBRANCH  22  23
BRANCH  22  27
ATOM     27  B   UNL     1       8.191 194.716  37.772  1.00  0.00     0.475 B 
BRANCH  27  28
ATOM     28  O   UNL     1       7.480 195.568  38.733  1.00  0.00    -0.426 OA
ATOM     29  H   UNL     1       8.132 196.055  39.312  1.00  0.00     0.189 HD
ENDBRANCH  27  28
BRANCH  27  30
ATOM     30  O   UNL     1       9.417 195.258  37.204  1.00  0.00    -0.426 OA
ATOM     31  H   UNL     1       9.272 196.084  36.694  1.00  0.00     0.189 HD
ENDBRANCH  27  30
ENDBRANCH  22  27
ENDBRANCH   3  22
TORSDOF 11
ENDMDL
MODEL 2
REMARK minimizedAffinity -6.65084887
REMARK CNNscore 0.601879716
REMARK CNNaffinity 6.31379652
REMARK SMILES C=CCN1CCN(c2ccn(CC(=O)N[C@@H](CC(C)C)B(O)O)c(=O)c2)CC1
REMARK SMILES IDX 13 1 14 2 15 3 12 5 11 6 8 7 9 8 26 9 10 10 24 11 25 12 7 13
REMARK SMILES IDX 4 14 5 15 28 16 6 17 27 18 3 19 2 20 1 21 16 22 17 23 18 24
REMARK SMILES IDX 19 25 20 26 21 27 22 28 23 30
REMARK H PARENT 15 4 22 29 23 31
ROOT
ATOM      1  C   UNL     1       8.374 192.468  40.371  1.00  0.00     0.239 C 
ATOM      2  O   UNL     1       9.557 192.706  40.023  1.00  0.00    -0.273 OA
ATOM      3  N   UNL     1       7.376 192.456  39.361  1.00  0.00    -0.353 N 
ATOM      4  H   UNL     1       6.353 192.266  39.565  1.00  0.00     0.163 HD
ENDROOT
BRANCH   1   5
ATOM      5  C   UNL     1       7.984 192.206  41.761  1.00  0.00     0.225 C 
BRANCH   5   6
ATOM      6  N   UNL     1       9.074 192.209  42.684  1.00  0.00    -0.306 N 
ATOM      7  C   UNL     1      11.229 192.249  44.516  1.00  0.00     0.044 A 
ATOM      8  C   UNL     1      10.432 193.354  44.313  1.00  0.00     0.044 A 
ATOM      9  C   UNL     1      10.891 191.123  43.755  1.00  0.00     0.097 A 
ATOM     10  C   UNL     1       9.375 193.285  43.393  1.00  0.00     0.092 A 
ATOM     11  C   UNL     1       9.839 191.116  42.867  1.00  0.00     0.253 A 
ATOM     12  O   UNL     1       9.581 190.064  42.203  1.00  0.00    -0.269 OA
BRANCH   7  13
ATOM     13  N   UNL     1      12.310 192.214  45.418  1.00  0.00    -0.369 N 
ATOM     14  N   UNL     1      14.211 190.708  46.607  1.00  0.00    -0.296 NA
ATOM     15  C   UNL     1      13.424 191.634  47.422  1.00  0.00     0.106 C 
ATOM     16  C   UNL     1      14.540 191.339  45.332  1.00  0.00     0.106 C 
ATOM     17  C   UNL     1      12.079 191.846  46.812  1.00  0.00     0.132 C 
ATOM     18  C   UNL     1      13.639 192.536  45.034  1.00  0.00     0.132 C 
BRANCH  14  19
ATOM     19  C   UNL     1      13.415 189.531  46.309  1.00  0.00     0.111 C 
BRANCH  19  20
ATOM     20  C   UNL     1      13.544 188.551  47.392  1.00  0.00    -0.019 C 
ATOM     21  C   UNL     1      12.547 187.872  47.907  1.00  0.00     0.005 C 
ENDBRANCH  19  20
ENDBRANCH  14  19
ENDBRANCH   7  13
ENDBRANCH   5   6
ENDBRANCH   1   5
BRANCH   3  22
ATOM     22  C   UNL     1       7.713 192.703  37.992  1.00  0.00     0.114 C 
BRANCH  22  23
ATOM     23  C   UNL     1       6.593 192.409  37.031  1.00  0.00     0.025 C 
BRANCH  23  24
ATOM     24  C   UNL     1       6.905 191.293  36.084  1.00  0.00    -0.016 C 
ATOM     25  C   UNL     1       6.730 191.601  34.639  1.00  0.00     0.007 C 
ATOM     26  C   UNL     1       8.314 190.759  36.277  1.00  0.00     0.007 C 
ENDBRANCH  23  24
ENDBRANCH  22  23
BRANCH  22  27
ATOM     27  B   UNL     1       7.990 194.284  37.906  1.00  0.00     0.475 B 
BRANCH  27  28
ATOM     28  O   UNL     1       7.436 195.075  39.013  1.00  0.00    -0.426 OA
ATOM     29  H   UNL     1       8.174 195.462  39.563  1.00  0.00     0.189 HD
ENDBRANCH  27  28
BRANCH  27  30
ATOM     30  O   UNL     1       9.187 194.808  37.266  1.00  0.00    -0.426 OA
ATOM     31  H   UNL     1       9.049 195.688  36.854  1.00  0.00     0.189 HD
ENDBRANCH  27  30
ENDBRANCH  22  27
ENDBRANCH   3  22
TORSDOF 11
ENDMDL
MODEL 3
REMARK minimizedAffinity -6.9444356
REMARK CNNscore 0.538984835
REMARK CNNaffinity 6.39383459
REMARK SMILES C=CCN1CCN(c2ccn(CC(=O)N[C@@H](CC(C)C)B(O)O)c(=O)c2)CC1
REMARK SMILES IDX 13 1 14 2 15 3 12 5 11 6 8 7 9 8 26 9 10 10 24 11 25 12 7 13
REMARK SMILES IDX 4 14 5 15 28 16 6 17 27 18 3 19 2 20 1 21 16 22 17 23 18 24
REMARK SMILES IDX 19 25 20 26 21 27 22 28 23 30
REMARK H PARENT 15 4 22 29 23 31
ROOT
ATOM      1  C   UNL     1       9.705 191.953  40.948  1.00  0.00     0.239 C 
ATOM      2  O   UNL     1      10.601 192.715  40.507  1.00  0.00    -0.273 OA
ATOM      3  N   UNL     1       8.440 191.977  40.305  1.00  0.00    -0.353 N 
ATOM      4  H   UNL     1       7.626 191.369  40.611  1.00  0.00     0.163 HD
ENDROOT
BRANCH   1   5
ATOM      5  C   UNL     1       9.909 191.049  42.085  1.00  0.00     0.225 C 
BRANCH   5   6
ATOM      6  N   UNL     1      11.079 190.235  41.982  1.00  0.00    -0.306 N 
ATOM      7  C   UNL     1      13.408 188.640  41.803  1.00  0.00     0.044 A 
ATOM      8  C   UNL     1      13.206 189.509  42.853  1.00  0.00     0.044 A 
ATOM      9  C   UNL     1      12.384 188.610  40.849  1.00  0.00     0.097 A 
ATOM     10  C   UNL     1      12.034 190.280  42.897  1.00  0.00     0.092 A 
ATOM     11  C   UNL     1      11.255 189.391  40.947  1.00  0.00     0.253 A 
ATOM     12  O   UNL     1      10.359 189.322  40.049  1.00  0.00    -0.269 OA
BRANCH   7  13
ATOM     13  N   UNL     1      14.546 187.821  41.670  1.00  0.00    -0.369 N 
ATOM     14  N   UNL     1      16.908 187.426  40.420  1.00  0.00    -0.296 NA
ATOM     15  C   UNL     1      15.986 186.300  40.573  1.00  0.00     0.106 C 
ATOM     16  C   UNL     1      16.909 188.224  41.643  1.00  0.00     0.106 C 
ATOM     17  C   UNL     1      14.578 186.788  40.639  1.00  0.00     0.132 C 
ATOM     18  C   UNL     1      15.684 187.947  42.512  1.00  0.00     0.132 C 
BRANCH  14  19
ATOM     19  C   UNL     1      16.445 188.287  39.347  1.00  0.00     0.111 C 
BRANCH  19  20
ATOM     20  C   UNL     1      17.446 188.337  38.277  1.00  0.00    -0.019 C 
ATOM     21  C   UNL     1      18.680 187.909  38.389  1.00  0.00     0.005 C 
ENDBRANCH  19  20
ENDBRANCH  14  19
ENDBRANCH   7  13
ENDBRANCH   5   6
ENDBRANCH   1   5
BRANCH   3  22
ATOM     22  C   UNL     1       8.197 192.841  39.189  1.00  0.00     0.114 C 
BRANCH  22  23
ATOM     23  C   UNL     1       7.090 192.368  38.287  1.00  0.00     0.025 C 
BRANCH  23  24
ATOM     24  C   UNL     1       7.450 192.418  36.835  1.00  0.00    -0.016 C 
ATOM     25  C   UNL     1       8.095 191.195  36.285  1.00  0.00     0.007 C 
ATOM     26  C   UNL     1       6.251 192.743  35.961  1.00  0.00     0.007 C 
ENDBRANCH  23  24
ENDBRANCH  22  23
BRANCH  22  27
ATOM     27  B   UNL     1       7.706 194.230  39.831  1.00  0.00     0.475 B 
BRANCH  27  28
ATOM     28  O   UNL     1       8.250 194.528  41.162  1.00  0.00    -0.426 OA
ATOM     29  H   UNL     1       8.860 195.318  41.117  1.00  0.00     0.189 HD
ENDBRANCH  27  28
BRANCH  27  30
ATOM     30  O   UNL     1       7.369 195.372  38.995  1.00  0.00    -0.426 OA
ATOM     31  H   UNL     1       6.675 195.945  39.388  1.00  0.00     0.189 HD
ENDBRANCH  27  30
ENDBRANCH  22  27
ENDBRANCH   3  22
TORSDOF 11
ENDMDL
MODEL 4
REMARK minimizedAffinity -5.66313124
REMARK CNNscore 0.42654115
REMARK CNNaffinity 5.25059462
REMARK SMILES C=CCN1CCN(c2ccn(CC(=O)N[C@@H](CC(C)C)B(O)O)c(=O)c2)CC1
REMARK SMILES IDX 13 1 14 2 15 3 12 5 11 6 8 7 9 8 26 9 10 10 24 11 25 12 7 13
REMARK SMILES IDX 4 14 5 15 28 16 6 17 27 18 3 19 2 20 1 21 16 22 17 23 18 24
REMARK SMILES IDX 19 25 20 26 21 27 22 28 23 30
REMARK H PARENT 15 4 22 29 23 31
ROOT
ATOM      1  C   UNL     1      13.636 188.115  40.842  1.00  0.00     0.239 C 
ATOM      2  O   UNL     1      13.144 188.093  39.686  1.00  0.00    -0.273 OA
ATOM      3  N   UNL     1      14.965 187.643  41.005  1.00  0.00    -0.353 N 
ATOM      4  H   UNL     1      15.458 187.623  41.943  1.00  0.00     0.163 HD
ENDROOT
BRANCH   1   5
ATOM      5  C   UNL     1      12.903 188.601  42.017  1.00  0.00     0.225 C 
BRANCH   5   6
ATOM      6  N   UNL     1      12.313 189.890  41.845  1.00  0.00    -0.306 N 
ATOM      7  C   UNL     1      11.175 192.459  41.511  1.00  0.00     0.044 A 
ATOM      8  C   UNL     1      12.539 192.277  41.593  1.00  0.00     0.044 A 
ATOM      9  C   UNL     1      10.412 191.288  41.604  1.00  0.00     0.097 A 
ATOM     10  C   UNL     1      13.055 190.983  41.759  1.00  0.00     0.092 A 
ATOM     11  C   UNL     1      10.978 190.044  41.766  1.00  0.00     0.253 A 
ATOM     12  O   UNL     1      10.233 189.017  41.845  1.00  0.00    -0.269 OA
BRANCH   7  13
ATOM     13  N   UNL     1      10.559 193.713  41.340  1.00  0.00    -0.369 N 
ATOM     14  N   UNL     1      10.292 195.903  39.782  1.00  0.00    -0.296 NA
ATOM     15  C   UNL     1      10.477 196.073  41.224  1.00  0.00     0.106 C 
ATOM     16  C   UNL     1       9.395 194.778  39.536  1.00  0.00     0.106 C 
ATOM     17  C   UNL     1      11.242 194.923  41.787  1.00  0.00     0.132 C 
ATOM     18  C   UNL     1       9.274 193.861  40.751  1.00  0.00     0.132 C 
BRANCH  14  19
ATOM     19  C   UNL     1      11.566 195.578  39.167  1.00  0.00     0.111 C 
BRANCH  19  20
ATOM     20  C   UNL     1      12.128 196.767  38.519  1.00  0.00    -0.019 C 
ATOM     21  C   UNL     1      13.394 197.109  38.556  1.00  0.00     0.005 C 
ENDBRANCH  19  20
ENDBRANCH  14  19
ENDBRANCH   7  13
ENDBRANCH   5   6
ENDBRANCH   1   5
BRANCH   3  22
ATOM     22  C   UNL     1      15.718 187.164  39.886  1.00  0.00     0.114 C 
BRANCH  22  23
ATOM     23  C   UNL     1      17.206 187.305  40.052  1.00  0.00     0.025 C 
BRANCH  23  24
ATOM     24  C   UNL     1      17.882 187.886  38.851  1.00  0.00    -0.016 C 
ATOM     25  C   UNL     1      18.528 189.212  39.049  1.00  0.00     0.007 C 
ATOM     26  C   UNL     1      18.924 186.945  38.271  1.00  0.00     0.007 C 
ENDBRANCH  23  24
ENDBRANCH  22  23
BRANCH  22  27
ATOM     27  B   UNL     1      15.410 185.587  39.816  1.00  0.00     0.475 B 
BRANCH  27  28
ATOM     28  O   UNL     1      16.267 184.825  38.900  1.00  0.00    -0.426 OA
ATOM     29  H   UNL     1      16.852 184.200  39.413  1.00  0.00     0.189 HD
ENDBRANCH  27  28
BRANCH  27  30
ATOM     30  O   UNL     1      14.886 184.869  40.968  1.00  0.00    -0.426 OA
ATOM     31  H   UNL     1      14.314 184.110  40.720  1.00  0.00     0.189 HD
ENDBRANCH  27  30
ENDBRANCH  22  27
ENDBRANCH   3  22
TORSDOF 11
ENDMDL
MODEL 5
REMARK minimizedAffinity -5.86178398
REMARK CNNscore 0.41132772
REMARK CNNaffinity 6.03846025
REMARK SMILES C=CCN1CCN(c2ccn(CC(=O)N[C@@H](CC(C)C)B(O)O)c(=O)c2)CC1
REMARK SMILES IDX 13 1 14 2 15 3 12 5 11 6 8 7 9 8 26 9 10 10 24 11 25 12 7 13
REMARK SMILES IDX 4 14 5 15 28 16 6 17 27 18 3 19 2 20 1 21 16 22 17 23 18 24
REMARK SMILES IDX 19 25 20 26 21 27 22 28 23 30
REMARK H PARENT 15 4 22 29 23 31
ROOT
ATOM      1  C   UNL     1       7.749 192.455  40.904  1.00  0.00     0.239 C 
ATOM      2  O   UNL     1       6.759 193.218  40.777  1.00  0.00    -0.273 OA
ATOM      3  N   UNL     1       8.531 192.188  39.750  1.00  0.00    -0.353 N 
ATOM      4  H   UNL     1       9.382 191.555  39.765  1.00  0.00     0.163 HD
ENDROOT
BRANCH   1   5
ATOM      5  C   UNL     1       8.126 191.837  42.180  1.00  0.00     0.225 C 
BRANCH   5   6
ATOM      6  N   UNL     1       9.508 191.980  42.513  1.00  0.00    -0.306 N 
ATOM      7  C   UNL     1      12.240 192.297  43.175  1.00  0.00     0.044 A 
ATOM      8  C   UNL     1      11.348 193.343  43.267  1.00  0.00     0.044 A 
ATOM      9  C   UNL     1      11.693 191.085  42.734  1.00  0.00     0.097 A 
ATOM     10  C   UNL     1      10.002 193.136  42.927  1.00  0.00     0.092 A 
ATOM     11  C   UNL     1      10.362 190.944  42.416  1.00  0.00     0.253 A 
ATOM     12  O   UNL     1       9.924 189.818  42.021  1.00  0.00    -0.269 OA
BRANCH   7  13
ATOM     13  N   UNL     1      13.607 192.400  43.496  1.00  0.00    -0.369 N 
ATOM     14  N   UNL     1      15.538 193.849  44.709  1.00  0.00    -0.296 NA
ATOM     15  C   UNL     1      15.785 193.312  43.369  1.00  0.00     0.106 C 
ATOM     16  C   UNL     1      14.828 192.855  45.508  1.00  0.00     0.106 C 
ATOM     17  C   UNL     1      14.500 193.161  42.627  1.00  0.00     0.132 C 
ATOM     18  C   UNL     1      14.174 191.780  44.642  1.00  0.00     0.132 C 
BRANCH  14  19
ATOM     19  C   UNL     1      14.676 195.013  44.611  1.00  0.00     0.111 C 
BRANCH  19  20
ATOM     20  C   UNL     1      15.027 195.985  45.652  1.00  0.00    -0.019 C 
ATOM     21  C   UNL     1      16.253 196.289  46.006  1.00  0.00     0.005 C 
ENDBRANCH  19  20
ENDBRANCH  14  19
ENDBRANCH   7  13
ENDBRANCH   5   6
ENDBRANCH   1   5
BRANCH   3  22
ATOM     22  C   UNL     1       8.201 192.773  38.486  1.00  0.00     0.114 C 
BRANCH  22  23
ATOM     23  C   UNL     1       6.740 192.685  38.141  1.00  0.00     0.025 C 
BRANCH  23  24
ATOM     24  C   UNL     1       6.482 192.025  36.823  1.00  0.00    -0.016 C 
ATOM     25  C   UNL     1       5.922 192.900  35.758  1.00  0.00     0.007 C 
ATOM     26  C   UNL     1       7.728 191.357  36.267  1.00  0.00     0.007 C 
ENDBRANCH  23  24
ENDBRANCH  22  23
BRANCH  22  27
ATOM     27  B   UNL     1       8.545 194.335  38.643  1.00  0.00     0.475 B 
BRANCH  27  28
ATOM     28  O   UNL     1       9.568 194.844  37.721  1.00  0.00    -0.426 OA
ATOM     29  H   UNL     1       9.161 195.490  37.077  1.00  0.00     0.189 HD
ENDBRANCH  27  28
BRANCH  27  30
ATOM     30  O   UNL     1       7.541 195.287  39.093  1.00  0.00    -0.426 OA
ATOM     31  H   UNL     1       7.923 196.043  39.591  1.00  0.00     0.189 HD
ENDBRANCH  27  30
ENDBRANCH  22  27
ENDBRANCH   3  22
TORSDOF 11
ENDMDL
MODEL 6
REMARK minimizedAffinity -6.36231947
REMARK CNNscore 0.393445373
REMARK CNNaffinity 5.98212957
REMARK SMILES C=CCN1CCN(c2ccn(CC(=O)N[C@@H](CC(C)C)B(O)O)c(=O)c2)CC1
REMARK SMILES IDX 13 1 14 2 15 3 12 5 11 6 8 7 9 8 26 9 10 10 24 11 25 12 7 13
REMARK SMILES IDX 4 14 5 15 28 16 6 17 27 18 3 19 2 20 1 21 16 22 17 23 18 24
REMARK SMILES IDX 19 25 20 26 21 27 22 28 23 30
REMARK H PARENT 15 4 22 29 23 31
ROOT
ATOM      1  C   UNL     1       7.859 192.547  40.915  1.00  0.00     0.239 C 
ATOM      2  O   UNL     1       6.840 193.270  40.791  1.00  0.00    -0.273 OA
ATOM      3  N   UNL     1       8.619 192.269  39.749  1.00  0.00    -0.353 N 
ATOM      4  H   UNL     1       9.492 191.667  39.761  1.00  0.00     0.163 HD
ENDROOT
BRANCH   1   5
ATOM      5  C   UNL     1       8.291 191.983  42.199  1.00  0.00     0.225 C 
BRANCH   5   6
ATOM      6  N   UNL     1       9.708 191.957  42.378  1.00  0.00    -0.306 N 
ATOM      7  C   UNL     1      12.514 191.939  42.733  1.00  0.00     0.044 A 
ATOM      8  C   UNL     1      11.781 193.102  42.825  1.00  0.00     0.044 A 
ATOM      9  C   UNL     1      11.769 190.786  42.455  1.00  0.00     0.097 A 
ATOM     10  C   UNL     1      10.391 193.059  42.641  1.00  0.00     0.092 A 
ATOM     11  C   UNL     1      10.404 190.808  42.284  1.00  0.00     0.253 A 
ATOM     12  O   UNL     1       9.782 189.729  42.033  1.00  0.00    -0.269 OA
BRANCH   7  13
ATOM     13  N   UNL     1      13.910 191.874  42.906  1.00  0.00    -0.369 N 
ATOM     14  N   UNL     1      16.270 191.011  41.915  1.00  0.00    -0.296 NA
ATOM     15  C   UNL     1      15.979 190.813  43.335  1.00  0.00     0.106 C 
ATOM     16  C   UNL     1      15.797 192.328  41.499  1.00  0.00     0.106 C 
ATOM     17  C   UNL     1      14.507 190.710  43.553  1.00  0.00     0.132 C 
ATOM     18  C   UNL     1      14.784 192.912  42.481  1.00  0.00     0.132 C 
BRANCH  14  19
ATOM     19  C   UNL     1      15.541 190.029  41.132  1.00  0.00     0.111 C 
BRANCH  19  20
ATOM     20  C   UNL     1      16.471 189.272  40.287  1.00  0.00    -0.019 C 
ATOM     21  C   UNL     1      17.778 189.346  40.363  1.00  0.00     0.005 C 
ENDBRANCH  19  20
ENDBRANCH  14  19
ENDBRANCH   7  13
ENDBRANCH   5   6
ENDBRANCH   1   5
BRANCH   3  22
ATOM     22  C   UNL     1       8.236 192.802  38.477  1.00  0.00     0.114 C 
BRANCH  22  23
ATOM     23  C   UNL     1       6.771 192.647  38.172  1.00  0.00     0.025 C 
BRANCH  23  24
ATOM     24  C   UNL     1       6.508 192.039  36.830  1.00  0.00    -0.016 C 
ATOM     25  C   UNL     1       5.854 192.928  35.833  1.00  0.00     0.007 C 
ATOM     26  C   UNL     1       7.773 191.484  36.197  1.00  0.00     0.007 C 
ENDBRANCH  23  24
ENDBRANCH  22  23
BRANCH  22  27
ATOM     27  B   UNL     1       8.521 194.380  38.579  1.00  0.00     0.475 B 
BRANCH  27  28
ATOM     28  O   UNL     1       9.536 194.892  37.650  1.00  0.00    -0.426 OA
ATOM     29  H   UNL     1       9.115 195.498  36.977  1.00  0.00     0.189 HD
ENDBRANCH  27  28
BRANCH  27  30
ATOM     30  O   UNL     1       7.477 195.312  38.980  1.00  0.00    -0.426 OA
ATOM     31  H   UNL     1       7.826 196.098  39.453  1.00  0.00     0.189 HD
ENDBRANCH  27  30
ENDBRANCH  22  27
ENDBRANCH   3  22
TORSDOF 11
ENDMDL
MODEL 7
REMARK minimizedAffinity -5.52265215
REMARK CNNscore 0.391122788
REMARK CNNaffinity 5.35062838
REMARK SMILES C=CCN1CCN(c2ccn(CC(=O)N[C@@H](CC(C)C)B(O)O)c(=O)c2)CC1
REMARK SMILES IDX 13 1 14 2 15 3 12 5 11 6 8 7 9 8 26 9 10 10 24 11 25 12 7 13
REMARK SMILES IDX 4 14 5 15 28 16 6 17 27 18 3 19 2 20 1 21 16 22 17 23 18 24
REMARK SMILES IDX 19 25 20 26 21 27 22 28 23 30
REMARK H PARENT 15 4 22 29 23 31
ROOT
ATOM      1  C   UNL     1      13.905 187.930  40.648  1.00  0.00     0.239 C 
ATOM      2  O   UNL     1      13.620 187.900  39.425  1.00  0.00    -0.273 OA
ATOM      3  N   UNL     1      15.209 187.522  41.034  1.00  0.00    -0.353 N 
ATOM      4  H   UNL     1      15.534 187.514  42.043  1.00  0.00     0.163 HD
ENDROOT
BRANCH   1   5
ATOM      5  C   UNL     1      12.958 188.363  41.681  1.00  0.00     0.225 C 
BRANCH   5   6
ATOM      6  N   UNL     1      12.467 189.693  41.504  1.00  0.00    -0.306 N 
ATOM      7  C   UNL     1      11.527 192.338  41.155  1.00  0.00     0.044 A 
ATOM      8  C   UNL     1      12.873 192.045  41.164  1.00  0.00     0.044 A 
ATOM      9  C   UNL     1      10.677 191.239  41.330  1.00  0.00     0.097 A 
ATOM     10  C   UNL     1      13.290 190.716  41.341  1.00  0.00     0.092 A 
ATOM     11  C   UNL     1      11.147 189.956  41.498  1.00  0.00     0.253 A 
ATOM     12  O   UNL     1      10.326 188.999  41.653  1.00  0.00    -0.269 OA
BRANCH   7  13
ATOM     13  N   UNL     1      11.007 193.635  40.981  1.00  0.00    -0.369 N 
ATOM     14  N   UNL     1      10.770 196.127  41.996  1.00  0.00    -0.296 NA
ATOM     15  C   UNL     1       9.584 195.464  41.451  1.00  0.00     0.106 C 
ATOM     16  C   UNL     1      11.921 195.845  41.144  1.00  0.00     0.106 C 
ATOM     17  C   UNL     1       9.718 193.984  41.570  1.00  0.00     0.132 C 
ATOM     18  C   UNL     1      11.684 194.639  40.237  1.00  0.00     0.132 C 
BRANCH  14  19
ATOM     19  C   UNL     1      11.066 195.583  43.309  1.00  0.00     0.111 C 
BRANCH  19  20
ATOM     20  C   UNL     1      10.102 196.090  44.291  1.00  0.00    -0.019 C 
ATOM     21  C   UNL     1      10.356 196.260  45.566  1.00  0.00     0.005 C 
ENDBRANCH  19  20
ENDBRANCH  14  19
ENDBRANCH   7  13
ENDBRANCH   5   6
ENDBRANCH   1   5
BRANCH   3  22
ATOM     22  C   UNL     1      16.165 187.095  40.058  1.00  0.00     0.114 C 
BRANCH  22  23
ATOM     23  C   UNL     1      17.593 187.234  40.509  1.00  0.00     0.025 C 
BRANCH  23  24
ATOM     24  C   UNL     1      18.418 188.092  39.602  1.00  0.00    -0.016 C 
ATOM     25  C   UNL     1      18.453 187.677  38.173  1.00  0.00     0.007 C 
ATOM     26  C   UNL     1      17.994 189.549  39.652  1.00  0.00     0.007 C 
ENDBRANCH  23  24
ENDBRANCH  22  23
BRANCH  22  27
ATOM     27  B   UNL     1      15.895 185.522  39.864  1.00  0.00     0.475 B 
BRANCH  27  28
ATOM     28  O   UNL     1      14.689 185.011  40.528  1.00  0.00    -0.426 OA
ATOM     29  H   UNL     1      14.017 184.721  39.849  1.00  0.00     0.189 HD
ENDBRANCH  27  28
BRANCH  27  30
ATOM     30  O   UNL     1      16.321 184.825  38.660  1.00  0.00    -0.426 OA
ATOM     31  H   UNL     1      16.546 183.883  38.821  1.00  0.00     0.189 HD
ENDBRANCH  27  30
ENDBRANCH  22  27
ENDBRANCH   3  22
TORSDOF 11
ENDMDL
MODEL 8
REMARK minimizedAffinity -5.4777174
REMARK CNNscore 0.355154932
REMARK CNNaffinity 5.1097703
REMARK SMILES C=CCN1CCN(c2ccn(CC(=O)N[C@@H](CC(C)C)B(O)O)c(=O)c2)CC1
REMARK SMILES IDX 13 1 14 2 15 3 12 5 11 6 8 7 9 8 26 9 10 10 24 11 25 12 7 13
REMARK SMILES IDX 4 14 5 15 28 16 6 17 27 18 3 19 2 20 1 21 16 22 17 23 18 24
REMARK SMILES IDX 19 25 20 26 21 27 22 28 23 30
REMARK H PARENT 15 4 22 29 23 31
ROOT
ATOM      1  C   UNL     1      16.650 189.799  41.236  1.00  0.00     0.239 C 
ATOM      2  O   UNL     1      16.738 188.823  42.022  1.00  0.00    -0.273 OA
ATOM      3  N   UNL     1      16.481 189.522  39.854  1.00  0.00    -0.353 N 
ATOM      4  H   UNL     1      16.400 190.284  39.121  1.00  0.00     0.163 HD
ENDROOT
BRANCH   1   5
ATOM      5  C   UNL     1      16.715 191.195  41.681  1.00  0.00     0.225 C 
BRANCH   5   6
ATOM      6  N   UNL     1      15.515 191.669  42.297  1.00  0.00    -0.306 N 
ATOM      7  C   UNL     1      13.151 192.593  43.546  1.00  0.00     0.044 A 
ATOM      8  C   UNL     1      14.197 192.069  44.275  1.00  0.00     0.044 A 
ATOM      9  C   UNL     1      13.351 192.629  42.160  1.00  0.00     0.097 A 
ATOM     10  C   UNL     1      15.349 191.624  43.609  1.00  0.00     0.092 A 
ATOM     11  C   UNL     1      14.506 192.177  41.564  1.00  0.00     0.253 A 
ATOM     12  O   UNL     1      14.630 192.236  40.301  1.00  0.00    -0.269 OA
BRANCH   7  13
ATOM     13  N   UNL     1      11.956 193.070  44.118  1.00  0.00    -0.369 N 
ATOM     14  N   UNL     1       9.730 194.561  43.778  1.00  0.00    -0.296 NA
ATOM     15  C   UNL     1      10.502 194.705  45.013  1.00  0.00     0.106 C 
ATOM     16  C   UNL     1       9.670 193.152  43.403  1.00  0.00     0.106 C 
ATOM     17  C   UNL     1      11.936 194.376  44.768  1.00  0.00     0.132 C 
ATOM     18  C   UNL     1      10.747 192.324  44.101  1.00  0.00     0.132 C 
BRANCH  14  19
ATOM     19  C   UNL     1      10.406 195.262  42.702  1.00  0.00     0.111 C 
BRANCH  19  20
ATOM     20  C   UNL     1       9.879 194.820  41.407  1.00  0.00    -0.019 C 
ATOM     21  C   UNL     1      10.618 194.453  40.387  1.00  0.00     0.005 C 
ENDBRANCH  19  20
ENDBRANCH  14  19
ENDBRANCH   7  13
ENDBRANCH   5   6
ENDBRANCH   1   5
BRANCH   3  22
ATOM     22  C   UNL     1      16.409 188.175  39.377  1.00  0.00     0.114 C 
BRANCH  22  23
ATOM     23  C   UNL     1      15.148 187.869  38.615  1.00  0.00     0.025 C 
BRANCH  23  24
ATOM     24  C   UNL     1      14.139 187.114  39.421  1.00  0.00    -0.016 C 
ATOM     25  C   UNL     1      14.691 186.131  40.393  1.00  0.00     0.007 C 
ATOM     26  C   UNL     1      13.205 188.040  40.179  1.00  0.00     0.007 C 
ENDBRANCH  23  24
ENDBRANCH  22  23
BRANCH  22  27
ATOM     27  B   UNL     1      17.623 188.033  38.334  1.00  0.00     0.475 B 
BRANCH  27  28
ATOM     28  O   UNL     1      17.828 186.682  37.796  1.00  0.00    -0.426 OA
ATOM     29  H   UNL     1      17.621 186.664  36.819  1.00  0.00     0.189 HD
ENDBRANCH  27  28
BRANCH  27  30
ATOM     30  O   UNL     1      18.017 189.142  37.478  1.00  0.00    -0.426 OA
ATOM     31  H   UNL     1      18.975 189.139  37.261  1.00  0.00     0.189 HD
ENDBRANCH  27  30
ENDBRANCH  22  27
ENDBRANCH   3  22
TORSDOF 11
ENDMDL
MODEL 9
REMARK minimizedAffinity -6.16020107
REMARK CNNscore 0.352738708
REMARK CNNaffinity 5.72383642
REMARK SMILES C=CCN1CCN(c2ccn(CC(=O)N[C@@H](CC(C)C)B(O)O)c(=O)c2)CC1
REMARK SMILES IDX 13 1 14 2 15 3 12 5 11 6 8 7 9 8 26 9 10 10 24 11 25 12 7 13
REMARK SMILES IDX 4 14 5 15 28 16 6 17 27 18 3 19 2 20 1 21 16 22 17 23 18 24
REMARK SMILES IDX 19 25 20 26 21 27 22 28 23 30
REMARK H PARENT 15 4 22 29 23 31
ROOT
ATOM      1  C   UNL     1       7.727 192.453  40.889  1.00  0.00     0.239 C 
ATOM      2  O   UNL     1       6.736 193.214  40.757  1.00  0.00    -0.273 OA
ATOM      3  N   UNL     1       8.514 192.187  39.738  1.00  0.00    -0.353 N 
ATOM      4  H   UNL     1       9.366 191.556  39.757  1.00  0.00     0.163 HD
ENDROOT
BRANCH   1   5
ATOM      5  C   UNL     1       8.100 191.836  42.166  1.00  0.00     0.225 C 
BRANCH   5   6
ATOM      6  N   UNL     1       9.479 191.988  42.508  1.00  0.00    -0.306 N 
ATOM      7  C   UNL     1      12.204 192.323  43.188  1.00  0.00     0.044 A 
ATOM      8  C   UNL     1      11.302 193.360  43.287  1.00  0.00     0.044 A 
ATOM      9  C   UNL     1      11.671 191.111  42.731  1.00  0.00     0.097 A 
ATOM     10  C   UNL     1       9.960 193.144  42.938  1.00  0.00     0.092 A 
ATOM     11  C   UNL     1      10.343 190.961  42.404  1.00  0.00     0.253 A 
ATOM     12  O   UNL     1       9.917 189.836  41.994  1.00  0.00    -0.269 OA
BRANCH   7  13
ATOM     13  N   UNL     1      13.569 192.435  43.517  1.00  0.00    -0.369 N 
ATOM     14  N   UNL     1      16.024 193.234  42.724  1.00  0.00    -0.296 NA
ATOM     15  C   UNL     1      15.871 191.923  43.355  1.00  0.00     0.106 C 
ATOM     16  C   UNL     1      15.180 194.207  43.411  1.00  0.00     0.106 C 
ATOM     17  C   UNL     1      14.500 191.387  43.112  1.00  0.00     0.132 C 
ATOM     18  C   UNL     1      14.093 193.536  44.248  1.00  0.00     0.132 C 
BRANCH  14  19
ATOM     19  C   UNL     1      15.564 193.164  41.349  1.00  0.00     0.111 C 
BRANCH  19  20
ATOM     20  C   UNL     1      15.952 194.381  40.628  1.00  0.00    -0.019 C 
ATOM     21  C   UNL     1      15.152 195.078  39.857  1.00  0.00     0.005 C 
ENDBRANCH  19  20
ENDBRANCH  14  19
ENDBRANCH   7  13
ENDBRANCH   5   6
ENDBRANCH   1   5
BRANCH   3  22
ATOM     22  C   UNL     1       8.189 192.771  38.472  1.00  0.00     0.114 C 
BRANCH  22  23
ATOM     23  C   UNL     1       6.727 192.689  38.126  1.00  0.00     0.025 C 
BRANCH  23  24
ATOM     24  C   UNL     1       6.468 192.019  36.813  1.00  0.00    -0.016 C 
ATOM     25  C   UNL     1       5.936 192.894  35.733  1.00  0.00     0.007 C 
ATOM     26  C   UNL     1       7.704 191.319  36.277  1.00  0.00     0.007 C 
ENDBRANCH  23  24
ENDBRANCH  22  23
BRANCH  22  27
ATOM     27  B   UNL     1       8.538 194.332  38.627  1.00  0.00     0.475 B 
BRANCH  27  28
ATOM     28  O   UNL     1       9.534 194.845  37.678  1.00  0.00    -0.426 OA
ATOM     29  H   UNL     1       9.110 195.495  37.050  1.00  0.00     0.189 HD
ENDBRANCH  27  28
BRANCH  27  30
ATOM     30  O   UNL     1       7.549 195.284  39.110  1.00  0.00    -0.426 OA
ATOM     31  H   UNL     1       7.946 196.036  39.600  1.00  0.00     0.189 HD
ENDBRANCH  27  30
ENDBRANCH  22  27
ENDBRANCH   3  22
TORSDOF 11
ENDMDL
