MODEL 1
REMARK minimizedAffinity -5.39496899
REMARK CNNscore 0.201479569
REMARK CNNaffinity 5.63319778
REMARK SMILES C(=C(c1ccc(OCCN2CCCCCC2)cc1)c1ccc(OCCN2CCCCCC2)cc1)c1ccccc1
REMARK SMILES IDX 1 1 2 2 35 3 36 4 40 5 37 6 39 7 38 8 3 9 4 10 18 11 5 12
REMARK SMILES IDX 17 13 6 14 7 15 8 16 9 17 10 18 11 19 12 20 13 21 16 23
REMARK SMILES IDX 15 24 14 25 19 27 20 28 34 29 21 30 33 31 22 32 23 33 24 34
REMARK SMILES IDX 25 35 26 36 27 37 28 38 29 39 32 41 31 42 30 43
REMARK H PARENT
REMARK Flexibility Score:   68.800
ROOT
ATOM      1  C   UNL     1       8.141 192.440  38.757  1.00  0.00     0.017 C 
ATOM      2  C   UNL     1       8.523 193.610  39.322  1.00  0.00    -0.011 C 
ENDROOT
BRANCH   1   3
ATOM      3  C   UNL     1       7.614 192.216  37.401  1.00  0.00    -0.025 A 
ATOM      4  C   UNL     1       8.387 191.495  36.483  1.00  0.00     0.008 A 
ATOM      5  C   UNL     1       6.343 192.662  37.021  1.00  0.00     0.008 A 
ATOM      6  C   UNL     1       7.907 191.248  35.194  1.00  0.00     0.001 A 
ATOM      7  C   UNL     1       5.865 192.417  35.731  1.00  0.00     0.001 A 
ATOM      8  C   UNL     1       6.648 191.712  34.819  1.00  0.00     0.000 A 
ENDBRANCH   1   3
BRANCH   2   9
ATOM      9  C   UNL     1       8.513 194.891  38.564  1.00  0.00    -0.018 A 
ATOM     10  C   UNL     1       9.675 195.314  37.907  1.00  0.00     0.012 A 
ATOM     11  C   UNL     1       7.353 195.666  38.446  1.00  0.00     0.012 A 
ATOM     12  C   UNL     1       9.683 196.492  37.151  1.00  0.00     0.047 A 
ATOM     13  C   UNL     1       7.366 196.847  37.699  1.00  0.00     0.047 A 
ATOM     14  C   UNL     1       8.523 197.258  37.036  1.00  0.00     0.119 A 
BRANCH  14  15
ATOM     15  O   UNL     1       8.400 198.426  36.337  1.00  0.00    -0.492 OA
BRANCH  15  16
ATOM     16  C   UNL     1       7.205 199.192  36.522  1.00  0.00     0.245 C 
BRANCH  16  17
ATOM     17  C   UNL     1       6.715 199.761  35.179  1.00  0.00     0.126 C 
BRANCH  17  18
ATOM     18  N   UNL     1       5.595 199.057  34.517  1.00  0.00    -0.300 NA
BRANCH  18  19
ATOM     19  C   UNL     1       5.921 198.718  33.130  1.00  0.00     0.084 C 
BRANCH  19  20
ATOM     20  C   UNL     1       7.396 198.401  32.860  1.00  0.00     0.016 C 
BRANCH  20  21
ATOM     21  C   UNL     1       7.629 197.781  31.488  1.00  0.00     0.001 C
ENDBRANCH  20  21
ENDBRANCH  19  20
ENDBRANCH  18  19
BRANCH  18  23
ATOM     23  C   UNL     1       5.101 197.937  35.326  1.00  0.00     0.084 C 
BRANCH  23  24
ATOM     24  C   UNL     1       3.579 197.817  35.274  1.00  0.00     0.016 C 
BRANCH  24  25
ATOM     25  C   UNL     1       3.038 196.707  34.379  1.00  0.00     0.001 C
ENDBRANCH  24  25
ENDBRANCH  23  24
ENDBRANCH  18  23
ENDBRANCH  17  18
ENDBRANCH  16  17
ENDBRANCH  15  16
ENDBRANCH  14  15
ENDBRANCH   2   9
BRANCH   2  27
ATOM     27  C   UNL     1       8.986 193.544  40.736  1.00  0.00    -0.018 A 
ATOM     28  C   UNL     1       9.641 194.623  41.346  1.00  0.00     0.012 A 
ATOM     29  C   UNL     1       8.808 192.366  41.473  1.00  0.00     0.012 A 
ATOM     30  C   UNL     1      10.090 194.536  42.670  1.00  0.00     0.047 A 
ATOM     31  C   UNL     1       9.259 192.282  42.793  1.00  0.00     0.047 A 
ATOM     32  C   UNL     1       9.893 193.366  43.401  1.00  0.00     0.119 A 
BRANCH  32  33
ATOM     33  O   UNL     1      10.285 193.148  44.692  1.00  0.00    -0.492 OA
BRANCH  33  34
ATOM     34  C   UNL     1      10.768 191.841  45.011  1.00  0.00     0.245 C 
BRANCH  34  35
ATOM     35  C   UNL     1      11.622 191.904  46.293  1.00  0.00     0.126 C 
BRANCH  35  36
ATOM     36  N   UNL     1      12.039 190.601  46.848  1.00  0.00    -0.300 NA
BRANCH  36  37
ATOM     37  C   UNL     1      11.613 190.410  48.236  1.00  0.00     0.084 C 
BRANCH  37  38
ATOM     38  C   UNL     1      10.568 189.314  48.482  1.00  0.00     0.016 C 
BRANCH  38  39
ATOM     39  C   UNL     1      11.103 187.921  48.848  1.00  0.00     0.001 C
ENDBRANCH  38  39
ENDBRANCH  37  38
ENDBRANCH  36  37
BRANCH  36  41
ATOM     41  C   UNL     1      13.442 190.303  46.560  1.00  0.00     0.084 C 
BRANCH  41  42
ATOM     42  C   UNL     1      13.724 189.093  45.664  1.00  0.00     0.016 C 
BRANCH  42  43
ATOM     43  C   UNL     1      13.881 187.750  46.378  1.00  0.00     0.001 C
ENDBRANCH  42  43
ENDBRANCH  41  42
ENDBRANCH  36  41
ENDBRANCH  35  36
ENDBRANCH  34  35
ENDBRANCH  33  34
ENDBRANCH  32  33
ENDBRANCH   2  27
TORSDOF 11
ENDMDL
MODEL 2
REMARK minimizedAffinity -5.32088566
REMARK CNNscore 0.176320925
REMARK CNNaffinity 5.66332483
REMARK SMILES C(=C(c1ccc(OCCN2CCCCCC2)cc1)c1ccc(OCCN2CCCCCC2)cc1)c1ccccc1
REMARK SMILES IDX 1 1 2 2 35 3 36 4 40 5 37 6 39 7 38 8 3 9 4 10 18 11 5 12
REMARK SMILES IDX 17 13 6 14 7 15 8 16 9 17 10 18 11 19 12 20 13 21 16 23
REMARK SMILES IDX 15 24 14 25 19 27 20 28 34 29 21 30 33 31 22 32 23 33 24 34
REMARK SMILES IDX 25 35 26 36 27 37 28 38 29 39 32 41 31 42 30 43
REMARK H PARENT
REMARK Flexibility Score:   68.800
ROOT
ATOM      1  C   UNL     1       8.091 192.390  38.661  1.00  0.00     0.017 C 
ATOM      2  C   UNL     1       8.510 193.537  39.246  1.00  0.00    -0.011 C 
ENDROOT
BRANCH   1   3
ATOM      3  C   UNL     1       7.563 192.206  37.299  1.00  0.00    -0.025 A 
ATOM      4  C   UNL     1       8.331 191.506  36.361  1.00  0.00     0.008 A 
ATOM      5  C   UNL     1       6.295 192.671  36.931  1.00  0.00     0.008 A 
ATOM      6  C   UNL     1       7.851 191.297  35.066  1.00  0.00     0.001 A 
ATOM      7  C   UNL     1       5.816 192.464  35.635  1.00  0.00     0.001 A 
ATOM      8  C   UNL     1       6.595 191.779  34.704  1.00  0.00     0.000 A 
ENDBRANCH   1   3
BRANCH   2   9
ATOM      9  C   UNL     1       8.548 194.829  38.510  1.00  0.00    -0.018 A 
ATOM     10  C   UNL     1       9.756 195.278  37.963  1.00  0.00     0.012 A 
ATOM     11  C   UNL     1       7.392 195.591  38.302  1.00  0.00     0.012 A 
ATOM     12  C   UNL     1       9.813 196.468  37.229  1.00  0.00     0.047 A 
ATOM     13  C   UNL     1       7.452 196.784  37.577  1.00  0.00     0.047 A 
ATOM     14  C   UNL     1       8.657 197.221  37.024  1.00  0.00     0.119 A 
BRANCH  14  15
ATOM     15  O   UNL     1       8.579 198.398  36.334  1.00  0.00    -0.492 OA
BRANCH  15  16
ATOM     16  C   UNL     1       7.293 199.014  36.210  1.00  0.00     0.245 C 
BRANCH  16  17
ATOM     17  C   UNL     1       6.686 198.722  34.826  1.00  0.00     0.126 C 
BRANCH  17  18
ATOM     18  N   UNL     1       5.360 198.068  34.795  1.00  0.00    -0.300 NA
BRANCH  18  19
ATOM     19  C   UNL     1       4.299 198.989  35.210  1.00  0.00     0.084 C 
BRANCH  19  20
ATOM     20  C   UNL     1       3.016 198.327  35.722  1.00  0.00     0.016 C 
BRANCH  20  21
ATOM     21  C   UNL     1       1.752 199.018  35.228  1.00  0.00     0.001 C
ENDBRANCH  20  21
ENDBRANCH  19  20
ENDBRANCH  18  19
BRANCH  18  23
ATOM     23  C   UNL     1       5.120 197.383  33.521  1.00  0.00     0.084 C 
BRANCH  23  24
ATOM     24  C   UNL     1       4.689 195.931  33.720  1.00  0.00     0.016 C 
BRANCH  24  25
ATOM     25  C   UNL     1       3.557 195.452  32.818  1.00  0.00     0.001 C
ENDBRANCH  24  25
ENDBRANCH  23  24
ENDBRANCH  18  23
ENDBRANCH  17  18
ENDBRANCH  16  17
ENDBRANCH  15  16
ENDBRANCH  14  15
ENDBRANCH   2   9
BRANCH   2  27
ATOM     27  C   UNL     1       8.963 193.432  40.661  1.00  0.00    -0.018 A 
ATOM     28  C   UNL     1       8.717 192.284  41.428  1.00  0.00     0.012 A 
ATOM     29  C   UNL     1       9.613 194.514  41.267  1.00  0.00     0.012 A 
ATOM     30  C   UNL     1       9.130 192.210  42.765  1.00  0.00     0.047 A 
ATOM     31  C   UNL     1      10.022 194.439  42.601  1.00  0.00     0.047 A 
ATOM     32  C   UNL     1       9.792 193.286  43.354  1.00  0.00     0.119 A 
BRANCH  32  33
ATOM     33  O   UNL     1      10.241 193.347  44.643  1.00  0.00    -0.492 OA
BRANCH  33  34
ATOM     34  C   UNL     1      11.048 192.260  45.100  1.00  0.00     0.245 C 
BRANCH  34  35
ATOM     35  C   UNL     1      11.464 192.505  46.565  1.00  0.00     0.126 C 
BRANCH  35  36
ATOM     36  N   UNL     1      12.812 192.030  46.935  1.00  0.00    -0.300 NA
BRANCH  36  37
ATOM     37  C   UNL     1      13.599 191.594  45.780  1.00  0.00     0.084 C 
BRANCH  37  38
ATOM     38  C   UNL     1      13.644 190.082  45.518  1.00  0.00     0.016 C 
BRANCH  38  39
ATOM     39  C   UNL     1      15.016 189.403  45.642  1.00  0.00     0.001 C
ENDBRANCH  38  39
ENDBRANCH  37  38
ENDBRANCH  36  37
BRANCH  36  41
ATOM     41  C   UNL     1      12.780 191.111  48.072  1.00  0.00     0.084 C 
BRANCH  41  42
ATOM     42  C   UNL     1      11.462 190.372  48.329  1.00  0.00     0.016 C 
BRANCH  42  43
ATOM     43  C   UNL     1      11.564 188.855  48.491  1.00  0.00     0.001 C
ENDBRANCH  42  43
ENDBRANCH  41  42
ENDBRANCH  36  41
ENDBRANCH  35  36
ENDBRANCH  34  35
ENDBRANCH  33  34
ENDBRANCH  32  33
ENDBRANCH   2  27
TORSDOF 11
ENDMDL
MODEL 3
REMARK minimizedAffinity -5.43342447
REMARK CNNscore 0.146098584
REMARK CNNaffinity 5.39159584
REMARK SMILES C(=C(c1ccc(OCCN2CCCCCC2)cc1)c1ccc(OCCN2CCCCCC2)cc1)c1ccccc1
REMARK SMILES IDX 1 1 2 2 35 3 36 4 40 5 37 6 39 7 38 8 3 9 4 10 18 11 5 12
REMARK SMILES IDX 17 13 6 14 7 15 8 16 9 17 10 18 11 19 12 20 13 21 16 23
REMARK SMILES IDX 15 24 14 25 19 27 20 28 34 29 21 30 33 31 22 32 23 33 24 34
REMARK SMILES IDX 25 35 26 36 27 37 28 38 29 39 32 41 31 42 30 43
REMARK H PARENT
REMARK Flexibility Score:   68.800
ROOT
ATOM      1  C   UNL     1       8.061 192.386  38.565  1.00  0.00     0.017 C 
ATOM      2  C   UNL     1       8.478 193.533  39.149  1.00  0.00    -0.011 C 
ENDROOT
BRANCH   1   3
ATOM      3  C   UNL     1       7.533 192.199  37.203  1.00  0.00    -0.025 A 
ATOM      4  C   UNL     1       8.270 191.440  36.286  1.00  0.00     0.008 A 
ATOM      5  C   UNL     1       6.293 192.721  36.816  1.00  0.00     0.008 A 
ATOM      6  C   UNL     1       7.787 191.229  34.992  1.00  0.00     0.001 A 
ATOM      7  C   UNL     1       5.812 192.511  35.520  1.00  0.00     0.001 A 
ATOM      8  C   UNL     1       6.560 191.767  34.610  1.00  0.00     0.000 A 
ENDBRANCH   1   3
BRANCH   2   9
ATOM      9  C   UNL     1       8.514 194.825  38.411  1.00  0.00    -0.018 A 
ATOM     10  C   UNL     1       7.346 195.591  38.300  1.00  0.00     0.012 A 
ATOM     11  C   UNL     1       9.701 195.327  37.865  1.00  0.00     0.012 A 
ATOM     12  C   UNL     1       7.360 196.830  37.649  1.00  0.00     0.047 A 
ATOM     13  C   UNL     1       9.711 196.560  37.208  1.00  0.00     0.047 A 
ATOM     14  C   UNL     1       8.547 197.324  37.110  1.00  0.00     0.119 A 
BRANCH  14  15
ATOM     15  O   UNL     1       8.694 198.511  36.448  1.00  0.00    -0.492 OA
BRANCH  15  16
ATOM     16  C   UNL     1       8.077 198.639  35.163  1.00  0.00     0.245 C 
BRANCH  16  17
ATOM     17  C   UNL     1       6.790 199.477  35.264  1.00  0.00     0.126 C 
BRANCH  17  18
ATOM     18  N   UNL     1       5.512 198.786  34.988  1.00  0.00    -0.300 NA
BRANCH  18  19
ATOM     19  C   UNL     1       4.481 199.725  34.540  1.00  0.00     0.084 C 
BRANCH  19  20
ATOM     20  C   UNL     1       3.102 199.543  35.182  1.00  0.00     0.016 C 
BRANCH  20  21
ATOM     21  C   UNL     1       2.633 200.776  35.944  1.00  0.00     0.001 C
ENDBRANCH  20  21
ENDBRANCH  19  20
ENDBRANCH  18  19
BRANCH  18  23
ATOM     23  C   UNL     1       5.701 197.618  34.122  1.00  0.00     0.084 C 
BRANCH  23  24
ATOM     24  C   UNL     1       5.001 196.376  34.670  1.00  0.00     0.016 C 
BRANCH  24  25
ATOM     25  C   UNL     1       4.123 195.623  33.676  1.00  0.00     0.001 C
ENDBRANCH  24  25
ENDBRANCH  23  24
ENDBRANCH  18  23
ENDBRANCH  17  18
ENDBRANCH  16  17
ENDBRANCH  15  16
ENDBRANCH  14  15
ENDBRANCH   2   9
BRANCH   2  27
ATOM     27  C   UNL     1       8.932 193.430  40.564  1.00  0.00    -0.018 A 
ATOM     28  C   UNL     1       9.531 194.513  41.224  1.00  0.00     0.012 A 
ATOM     29  C   UNL     1       8.804 192.216  41.250  1.00  0.00     0.012 A 
ATOM     30  C   UNL     1       9.973 194.392  42.548  1.00  0.00     0.047 A 
ATOM     31  C   UNL     1       9.248 192.098  42.570  1.00  0.00     0.047 A 
ATOM     32  C   UNL     1       9.825 193.184  43.228  1.00  0.00     0.119 A 
BRANCH  32  33
ATOM     33  O   UNL     1      10.216 192.931  44.513  1.00  0.00    -0.492 OA
BRANCH  33  34
ATOM     34  C   UNL     1      10.817 191.660  44.769  1.00  0.00     0.245 C 
BRANCH  34  35
ATOM     35  C   UNL     1      12.291 191.857  45.177  1.00  0.00     0.126 C 
BRANCH  35  36
ATOM     36  N   UNL     1      12.555 191.881  46.629  1.00  0.00    -0.300 NA
BRANCH  36  37
ATOM     37  C   UNL     1      11.542 191.161  47.404  1.00  0.00     0.084 C 
BRANCH  37  38
ATOM     38  C   UNL     1      11.965 189.804  47.982  1.00  0.00     0.016 C 
BRANCH  38  39
ATOM     39  C   UNL     1      10.868 188.976  48.668  1.00  0.00     0.001 C
ENDBRANCH  38  39
ENDBRANCH  37  38
ENDBRANCH  36  37
BRANCH  36  41
ATOM     41  C   UNL     1      12.894 193.222  47.106  1.00  0.00     0.084 C 
BRANCH  41  42
ATOM     42  C   UNL     1      11.763 194.039  47.740  1.00  0.00     0.016 C 
BRANCH  42  43
ATOM     43  C   UNL     1      11.278 195.248  46.939  1.00  0.00     0.001 C
ENDBRANCH  42  43
ENDBRANCH  41  42
ENDBRANCH  36  41
ENDBRANCH  35  36
ENDBRANCH  34  35
ENDBRANCH  33  34
ENDBRANCH  32  33
ENDBRANCH   2  27
TORSDOF 11
ENDMDL
MODEL 4
REMARK minimizedAffinity -4.69244337
REMARK CNNscore 0.141926885
REMARK CNNaffinity 5.18675947
REMARK SMILES C(=C(c1ccc(OCCN2CCCCCC2)cc1)c1ccc(OCCN2CCCCCC2)cc1)c1ccccc1
REMARK SMILES IDX 1 1 2 2 35 3 36 4 40 5 37 6 39 7 38 8 3 9 4 10 18 11 5 12
REMARK SMILES IDX 17 13 6 14 7 15 8 16 9 17 10 18 11 19 12 20 13 21 16 23
REMARK SMILES IDX 15 24 14 25 19 27 20 28 34 29 21 30 33 31 22 32 23 33 24 34
REMARK SMILES IDX 25 35 26 36 27 37 28 38 29 39 32 41 31 42 30 43
REMARK H PARENT
REMARK Flexibility Score:   68.800
ROOT
ATOM      1  C   UNL     1       8.133 192.510  38.766  1.00  0.00     0.017 C 
ATOM      2  C   UNL     1       8.513 193.694  39.300  1.00  0.00    -0.011 C 
ENDROOT
BRANCH   1   3
ATOM      3  C   UNL     1       7.606 192.251  37.416  1.00  0.00    -0.025 A 
ATOM      4  C   UNL     1       8.417 191.592  36.484  1.00  0.00     0.008 A 
ATOM      5  C   UNL     1       6.301 192.603  37.054  1.00  0.00     0.008 A 
ATOM      6  C   UNL     1       7.940 191.313  35.201  1.00  0.00     0.001 A 
ATOM      7  C   UNL     1       5.825 192.327  35.770  1.00  0.00     0.001 A 
ATOM      8  C   UNL     1       6.645 191.684  34.844  1.00  0.00     0.000 A 
ENDBRANCH   1   3
BRANCH   2   9
ATOM      9  C   UNL     1       8.501 194.956  38.511  1.00  0.00    -0.018 A 
ATOM     10  C   UNL     1       9.670 195.379  37.867  1.00  0.00     0.012 A 
ATOM     11  C   UNL     1       7.334 195.711  38.351  1.00  0.00     0.012 A 
ATOM     12  C   UNL     1       9.677 196.538  37.083  1.00  0.00     0.047 A 
ATOM     13  C   UNL     1       7.345 196.873  37.574  1.00  0.00     0.047 A 
ATOM     14  C   UNL     1       8.510 197.285  36.925  1.00  0.00     0.119 A 
BRANCH  14  15
ATOM     15  O   UNL     1       8.385 198.433  36.195  1.00  0.00    -0.492 OA
BRANCH  15  16
ATOM     16  C   UNL     1       7.240 199.257  36.437  1.00  0.00     0.245 C 
BRANCH  16  17
ATOM     17  C   UNL     1       6.726 199.868  35.122  1.00  0.00     0.126 C 
BRANCH  17  18
ATOM     18  N   UNL     1       5.985 201.144  35.215  1.00  0.00    -0.300 NA
BRANCH  18  19
ATOM     19  C   UNL     1       5.457 201.553  33.911  1.00  0.00     0.084 C 
BRANCH  19  20
ATOM     20  C   UNL     1       6.229 202.677  33.213  1.00  0.00     0.016 C 
BRANCH  20  21
ATOM     21  C   UNL     1       5.645 203.044  31.853  1.00  0.00     0.001 C
ENDBRANCH  20  21
ENDBRANCH  19  20
ENDBRANCH  18  19
BRANCH  18  23
ATOM     23  C   UNL     1       4.999 201.123  36.301  1.00  0.00     0.084 C 
BRANCH  23  24
ATOM     24  C   UNL     1       4.996 202.425  37.100  1.00  0.00     0.016 C 
BRANCH  24  25
ATOM     25  C   UNL     1       4.895 202.267  38.614  1.00  0.00     0.001 C
ENDBRANCH  24  25
ENDBRANCH  23  24
ENDBRANCH  18  23
ENDBRANCH  17  18
ENDBRANCH  16  17
ENDBRANCH  15  16
ENDBRANCH  14  15
ENDBRANCH   2   9
BRANCH   2  27
ATOM     27  C   UNL     1       8.977 193.664  40.716  1.00  0.00    -0.018 A 
ATOM     28  C   UNL     1       9.700 194.728  41.275  1.00  0.00     0.012 A 
ATOM     29  C   UNL     1       8.729 192.535  41.506  1.00  0.00     0.012 A 
ATOM     30  C   UNL     1      10.148 194.673  42.601  1.00  0.00     0.047 A 
ATOM     31  C   UNL     1       9.179 192.483  42.828  1.00  0.00     0.047 A 
ATOM     32  C   UNL     1       9.882 193.552  43.385  1.00  0.00     0.119 A 
BRANCH  32  33
ATOM     33  O   UNL     1      10.264 193.369  44.685  1.00  0.00    -0.492 OA
BRANCH  33  34
ATOM     34  C   UNL     1      11.668 193.377  44.954  1.00  0.00     0.245 C 
BRANCH  34  35
ATOM     35  C   UNL     1      12.196 191.928  44.985  1.00  0.00     0.126 C 
BRANCH  35  36
ATOM     36  N   UNL     1      13.290 191.667  45.942  1.00  0.00    -0.300 NA
BRANCH  36  37
ATOM     37  C   UNL     1      14.192 190.602  45.499  1.00  0.00     0.084 C 
BRANCH  37  38
ATOM     38  C   UNL     1      13.655 189.665  44.408  1.00  0.00     0.016 C 
BRANCH  38  39
ATOM     39  C   UNL     1      14.059 188.187  44.511  1.00  0.00     0.001 C
ENDBRANCH  38  39
ENDBRANCH  37  38
ENDBRANCH  36  37
BRANCH  36  41
ATOM     41  C   UNL     1      12.806 191.566  47.318  1.00  0.00     0.084 C 
BRANCH  41  42
ATOM     42  C   UNL     1      11.568 190.695  47.556  1.00  0.00     0.016 C 
BRANCH  42  43
ATOM     43  C   UNL     1      11.829 189.295  48.114  1.00  0.00     0.001 C
ENDBRANCH  42  43
ENDBRANCH  41  42
ENDBRANCH  36  41
ENDBRANCH  35  36
ENDBRANCH  34  35
ENDBRANCH  33  34
ENDBRANCH  32  33
ENDBRANCH   2  27
TORSDOF 11
ENDMDL
MODEL 5
REMARK minimizedAffinity -5.11883926
REMARK CNNscore 0.139790431
REMARK CNNaffinity 5.37523794
REMARK SMILES C(=C(c1ccc(OCCN2CCCCCC2)cc1)c1ccc(OCCN2CCCCCC2)cc1)c1ccccc1
REMARK SMILES IDX 1 1 2 2 35 3 36 4 40 5 37 6 39 7 38 8 3 9 4 10 18 11 5 12
REMARK SMILES IDX 17 13 6 14 7 15 8 16 9 17 10 18 11 19 12 20 13 21 16 23
REMARK SMILES IDX 15 24 14 25 19 27 20 28 34 29 21 30 33 31 22 32 23 33 24 34
REMARK SMILES IDX 25 35 26 36 27 37 28 38 29 39 32 41 31 42 30 43
REMARK H PARENT
REMARK Flexibility Score:   68.800
ROOT
ATOM      1  C   UNL     1       8.110 192.389  38.664  1.00  0.00     0.017 C 
ATOM      2  C   UNL     1       8.491 193.549  39.249  1.00  0.00    -0.011 C 
ENDROOT
BRANCH   1   3
ATOM      3  C   UNL     1       7.591 192.188  37.301  1.00  0.00    -0.025 A 
ATOM      4  C   UNL     1       8.375 191.499  36.369  1.00  0.00     0.008 A 
ATOM      5  C   UNL     1       6.315 192.626  36.927  1.00  0.00     0.008 A 
ATOM      6  C   UNL     1       7.903 191.274  35.073  1.00  0.00     0.001 A 
ATOM      7  C   UNL     1       5.844 192.404  35.630  1.00  0.00     0.001 A 
ATOM      8  C   UNL     1       6.639 191.729  34.705  1.00  0.00     0.000 A 
ENDBRANCH   1   3
BRANCH   2   9
ATOM      9  C   UNL     1       8.487 194.842  38.513  1.00  0.00    -0.018 A 
ATOM     10  C   UNL     1       9.658 195.282  37.882  1.00  0.00     0.012 A 
ATOM     11  C   UNL     1       7.326 195.614  38.389  1.00  0.00     0.012 A 
ATOM     12  C   UNL     1       9.672 196.473  37.147  1.00  0.00     0.047 A 
ATOM     13  C   UNL     1       7.344 196.807  37.662  1.00  0.00     0.047 A 
ATOM     14  C   UNL     1       8.511 197.235  37.025  1.00  0.00     0.119 A 
BRANCH  14  15
ATOM     15  O   UNL     1       8.393 198.414  36.344  1.00  0.00    -0.492 OA
BRANCH  15  16
ATOM     16  C   UNL     1       7.525 199.414  36.886  1.00  0.00     0.245 C 
BRANCH  16  17
ATOM     17  C   UNL     1       7.188 200.471  35.820  1.00  0.00     0.126 C 
BRANCH  17  18
ATOM     18  N   UNL     1       5.757 200.778  35.603  1.00  0.00    -0.300 NA
BRANCH  18  19
ATOM     19  C   UNL     1       4.900 199.685  36.067  1.00  0.00     0.084 C 
BRANCH  19  20
ATOM     20  C   UNL     1       3.501 199.636  35.444  1.00  0.00     0.016 C 
BRANCH  20  21
ATOM     21  C   UNL     1       2.764 198.335  35.737  1.00  0.00     0.001 C
ENDBRANCH  20  21
ENDBRANCH  19  20
ENDBRANCH  18  19
BRANCH  18  23
ATOM     23  C   UNL     1       5.400 202.104  36.117  1.00  0.00     0.084 C 
BRANCH  23  24
ATOM     24  C   UNL     1       5.215 202.101  37.634  1.00  0.00     0.016 C 
BRANCH  24  25
ATOM     25  C   UNL     1       3.869 202.614  38.133  1.00  0.00     0.001 C
ENDBRANCH  24  25
ENDBRANCH  23  24
ENDBRANCH  18  23
ENDBRANCH  17  18
ENDBRANCH  16  17
ENDBRANCH  15  16
ENDBRANCH  14  15
ENDBRANCH   2   9
BRANCH   2  27
ATOM     27  C   UNL     1       8.946 193.459  40.665  1.00  0.00    -0.018 A 
ATOM     28  C   UNL     1       9.636 194.512  41.284  1.00  0.00     0.012 A 
ATOM     29  C   UNL     1       8.725 192.284  41.394  1.00  0.00     0.012 A 
ATOM     30  C   UNL     1      10.077 194.401  42.609  1.00  0.00     0.047 A 
ATOM     31  C   UNL     1       9.168 192.176  42.715  1.00  0.00     0.047 A 
ATOM     32  C   UNL     1       9.837 193.234  43.332  1.00  0.00     0.119 A 
BRANCH  32  33
ATOM     33  O   UNL     1      10.216 192.995  44.623  1.00  0.00    -0.492 OA
BRANCH  33  34
ATOM     34  C   UNL     1      10.827 191.732  44.896  1.00  0.00     0.245 C 
BRANCH  34  35
ATOM     35  C   UNL     1      12.116 191.948  45.716  1.00  0.00     0.126 C 
BRANCH  35  36
ATOM     36  N   UNL     1      12.017 192.931  46.814  1.00  0.00    -0.300 NA
BRANCH  36  37
ATOM     37  C   UNL     1      12.959 194.043  46.669  1.00  0.00     0.084 C 
BRANCH  37  38
ATOM     38  C   UNL     1      12.385 195.352  46.110  1.00  0.00     0.016 C 
BRANCH  38  39
ATOM     39  C   UNL     1      10.981 195.749  46.591  1.00  0.00     0.001 C
ENDBRANCH  38  39
ENDBRANCH  37  38
ENDBRANCH  36  37
BRANCH  36  41
ATOM     41  C   UNL     1      11.980 192.288  48.127  1.00  0.00     0.084 C 
BRANCH  41  42
ATOM     42  C   UNL     1      12.247 190.780  48.168  1.00  0.00     0.016 C 
BRANCH  42  43
ATOM     43  C   UNL     1      11.097 189.908  48.675  1.00  0.00     0.001 C
ENDBRANCH  42  43
ENDBRANCH  41  42
ENDBRANCH  36  41
ENDBRANCH  35  36
ENDBRANCH  34  35
ENDBRANCH  33  34
ENDBRANCH  32  33
ENDBRANCH   2  27
TORSDOF 11
ENDMDL
MODEL 6
REMARK minimizedAffinity -4.98525429
REMARK CNNscore 0.138509586
REMARK CNNaffinity 5.29425621
REMARK SMILES C(=C(c1ccc(OCCN2CCCCCC2)cc1)c1ccc(OCCN2CCCCCC2)cc1)c1ccccc1
REMARK SMILES IDX 1 1 2 2 35 3 36 4 40 5 37 6 39 7 38 8 3 9 4 10 18 11 5 12
REMARK SMILES IDX 17 13 6 14 7 15 8 16 9 17 10 18 11 19 12 20 13 21 16 23
REMARK SMILES IDX 15 24 14 25 19 27 20 28 34 29 21 30 33 31 22 32 23 33 24 34
REMARK SMILES IDX 25 35 26 36 27 37 28 38 29 39 32 41 31 42 30 43
REMARK H PARENT
REMARK Flexibility Score:   68.800
ROOT
ATOM      1  C   UNL     1       8.143 192.447  38.757  1.00  0.00     0.017 C 
ATOM      2  C   UNL     1       8.542 193.613  39.318  1.00  0.00    -0.011 C 
ENDROOT
BRANCH   1   3
ATOM      3  C   UNL     1       7.609 192.227  37.402  1.00  0.00    -0.025 A 
ATOM      4  C   UNL     1       8.417 191.597  36.448  1.00  0.00     0.008 A 
ATOM      5  C   UNL     1       6.301 192.587  37.058  1.00  0.00     0.008 A 
ATOM      6  C   UNL     1       7.933 191.356  35.159  1.00  0.00     0.001 A 
ATOM      7  C   UNL     1       5.819 192.348  35.769  1.00  0.00     0.001 A 
ATOM      8  C   UNL     1       6.636 191.735  34.821  1.00  0.00     0.000 A 
ENDBRANCH   1   3
BRANCH   2   9
ATOM      9  C   UNL     1       8.546 194.892  38.558  1.00  0.00    -0.018 A 
ATOM     10  C   UNL     1       9.746 195.369  38.014  1.00  0.00     0.012 A 
ATOM     11  C   UNL     1       7.369 195.614  38.326  1.00  0.00     0.012 A 
ATOM     12  C   UNL     1       9.772 196.547  37.258  1.00  0.00     0.047 A 
ATOM     13  C   UNL     1       7.400 196.794  37.579  1.00  0.00     0.047 A 
ATOM     14  C   UNL     1       8.596 197.259  37.029  1.00  0.00     0.119 A 
BRANCH  14  15
ATOM     15  O   UNL     1       8.487 198.420  36.317  1.00  0.00    -0.492 OA
BRANCH  15  16
ATOM     16  C   UNL     1       7.219 199.084  36.313  1.00  0.00     0.245 C 
BRANCH  16  17
ATOM     17  C   UNL     1       7.094 200.015  37.532  1.00  0.00     0.126 C 
BRANCH  17  18
ATOM     18  N   UNL     1       7.568 201.406  37.370  1.00  0.00    -0.300 NA
BRANCH  18  19
ATOM     19  C   UNL     1       8.518 201.774  38.423  1.00  0.00     0.084 C 
BRANCH  19  20
ATOM     20  C   UNL     1       9.284 200.607  39.055  1.00  0.00     0.016 C 
BRANCH  20  21
ATOM     21  C   UNL     1      10.386 201.063  40.004  1.00  0.00     0.001 C
ENDBRANCH  20  21
ENDBRANCH  19  20
ENDBRANCH  18  19
BRANCH  18  23
ATOM     23  C   UNL     1       8.031 201.668  36.003  1.00  0.00     0.084 C 
BRANCH  23  24
ATOM     24  C   UNL     1       7.467 202.973  35.446  1.00  0.00     0.016 C 
BRANCH  24  25
ATOM     25  C   UNL     1       8.436 204.150  35.419  1.00  0.00     0.001 C
ENDBRANCH  24  25
ENDBRANCH  23  24
ENDBRANCH  18  23
ENDBRANCH  17  18
ENDBRANCH  16  17
ENDBRANCH  15  16
ENDBRANCH  14  15
ENDBRANCH   2   9
BRANCH   2  27
ATOM     27  C   UNL     1       9.008 193.543  40.731  1.00  0.00    -0.018 A 
ATOM     28  C   UNL     1       9.671 194.618  41.340  1.00  0.00     0.012 A 
ATOM     29  C   UNL     1       8.824 192.366  41.468  1.00  0.00     0.012 A 
ATOM     30  C   UNL     1      10.123 194.528  42.663  1.00  0.00     0.047 A 
ATOM     31  C   UNL     1       9.278 192.278  42.787  1.00  0.00     0.047 A 
ATOM     32  C   UNL     1       9.921 193.359  43.394  1.00  0.00     0.119 A 
BRANCH  32  33
ATOM     33  O   UNL     1      10.314 193.137  44.684  1.00  0.00    -0.492 OA
BRANCH  33  34
ATOM     34  C   UNL     1      10.823 191.838  44.992  1.00  0.00     0.245 C 
BRANCH  34  35
ATOM     35  C   UNL     1      11.638 191.899  46.300  1.00  0.00     0.126 C 
BRANCH  35  36
ATOM     36  N   UNL     1      12.038 190.594  46.865  1.00  0.00    -0.300 NA
BRANCH  36  37
ATOM     37  C   UNL     1      11.586 190.409  48.245  1.00  0.00     0.084 C 
BRANCH  37  38
ATOM     38  C   UNL     1      10.547 189.304  48.479  1.00  0.00     0.016 C 
BRANCH  38  39
ATOM     39  C   UNL     1      11.091 187.906  48.808  1.00  0.00     0.001 C
ENDBRANCH  38  39
ENDBRANCH  37  38
ENDBRANCH  36  37
BRANCH  36  41
ATOM     41  C   UNL     1      13.444 190.289  46.604  1.00  0.00     0.084 C 
BRANCH  41  42
ATOM     42  C   UNL     1      13.736 189.063  45.732  1.00  0.00     0.016 C 
BRANCH  42  43
ATOM     43  C   UNL     1      13.581 189.259  44.223  1.00  0.00     0.001 C
ENDBRANCH  42  43
ENDBRANCH  41  42
ENDBRANCH  36  41
ENDBRANCH  35  36
ENDBRANCH  34  35
ENDBRANCH  33  34
ENDBRANCH  32  33
ENDBRANCH   2  27
TORSDOF 11
ENDMDL
MODEL 7
REMARK minimizedAffinity -4.79559851
REMARK CNNscore 0.137628943
REMARK CNNaffinity 5.3746357
REMARK SMILES C(=C(c1ccc(OCCN2CCCCCC2)cc1)c1ccc(OCCN2CCCCCC2)cc1)c1ccccc1
REMARK SMILES IDX 1 1 2 2 35 3 36 4 40 5 37 6 39 7 38 8 3 9 4 10 18 11 5 12
REMARK SMILES IDX 17 13 6 14 7 15 8 16 9 17 10 18 11 19 12 20 13 21 16 23
REMARK SMILES IDX 15 24 14 25 19 27 20 28 34 29 21 30 33 31 22 32 23 33 24 34
REMARK SMILES IDX 25 35 26 36 27 37 28 38 29 39 32 41 31 42 30 43
REMARK H PARENT
REMARK Flexibility Score:   68.800
ROOT
ATOM      1  C   UNL     1       8.132 192.540  38.805  1.00  0.00     0.017 C 
ATOM      2  C   UNL     1       8.533 193.724  39.323  1.00  0.00    -0.011 C 
ENDROOT
BRANCH   1   3
ATOM      3  C   UNL     1       7.605 192.270  37.457  1.00  0.00    -0.025 A 
ATOM      4  C   UNL     1       8.410 191.587  36.537  1.00  0.00     0.008 A 
ATOM      5  C   UNL     1       6.306 192.637  37.086  1.00  0.00     0.008 A 
ATOM      6  C   UNL     1       7.932 191.299  35.256  1.00  0.00     0.001 A 
ATOM      7  C   UNL     1       5.831 192.351  35.804  1.00  0.00     0.001 A 
ATOM      8  C   UNL     1       6.644 191.683  34.890  1.00  0.00     0.000 A 
ENDBRANCH   1   3
BRANCH   2   9
ATOM      9  C   UNL     1       8.549 194.973  38.515  1.00  0.00    -0.018 A 
ATOM     10  C   UNL     1       9.743 195.391  37.913  1.00  0.00     0.012 A 
ATOM     11  C   UNL     1       7.387 195.722  38.294  1.00  0.00     0.012 A 
ATOM     12  C   UNL     1       9.779 196.539  37.112  1.00  0.00     0.047 A 
ATOM     13  C   UNL     1       7.427 196.872  37.501  1.00  0.00     0.047 A 
ATOM     14  C   UNL     1       8.616 197.278  36.895  1.00  0.00     0.119 A 
BRANCH  14  15
ATOM     15  O   UNL     1       8.518 198.414  36.142  1.00  0.00    -0.492 OA
BRANCH  15  16
ATOM     16  C   UNL     1       7.304 199.168  36.227  1.00  0.00     0.245 C 
BRANCH  16  17
ATOM     17  C   UNL     1       7.063 199.952  34.925  1.00  0.00     0.126 C 
BRANCH  17  18
ATOM     18  N   UNL     1       8.153 199.952  33.927  1.00  0.00    -0.300 NA
BRANCH  18  19
ATOM     19  C   UNL     1       7.656 199.610  32.591  1.00  0.00     0.084 C 
BRANCH  19  20
ATOM     20  C   UNL     1       7.941 198.177  32.130  1.00  0.00     0.016 C 
BRANCH  20  21
ATOM     21  C   UNL     1       7.447 197.899  30.716  1.00  0.00     0.001 C
ENDBRANCH  20  21
ENDBRANCH  19  20
ENDBRANCH  18  19
BRANCH  18  23
ATOM     23  C   UNL     1       8.952 201.180  33.992  1.00  0.00     0.084 C 
BRANCH  23  24
ATOM     24  C   UNL     1      10.413 200.937  33.617  1.00  0.00     0.016 C 
BRANCH  24  25
ATOM     25  C   UNL     1      11.437 201.748  34.404  1.00  0.00     0.001 C
ENDBRANCH  24  25
ENDBRANCH  23  24
ENDBRANCH  18  23
ENDBRANCH  17  18
ENDBRANCH  16  17
ENDBRANCH  15  16
ENDBRANCH  14  15
ENDBRANCH   2   9
BRANCH   2  27
ATOM     27  C   UNL     1       8.990 193.707  40.741  1.00  0.00    -0.018 A 
ATOM     28  C   UNL     1       9.718 194.772  41.292  1.00  0.00     0.012 A 
ATOM     29  C   UNL     1       8.731 192.588  41.543  1.00  0.00     0.012 A 
ATOM     30  C   UNL     1      10.160 194.729  42.621  1.00  0.00     0.047 A 
ATOM     31  C   UNL     1       9.175 192.548  42.867  1.00  0.00     0.047 A 
ATOM     32  C   UNL     1       9.882 193.619  43.416  1.00  0.00     0.119 A 
BRANCH  32  33
ATOM     33  O   UNL     1      10.258 193.448  44.719  1.00  0.00    -0.492 OA
BRANCH  33  34
ATOM     34  C   UNL     1      11.660 193.444  44.994  1.00  0.00     0.245 C 
BRANCH  34  35
ATOM     35  C   UNL     1      12.180 191.992  45.011  1.00  0.00     0.126 C 
BRANCH  35  36
ATOM     36  N   UNL     1      13.294 191.724  45.942  1.00  0.00    -0.300 NA
BRANCH  36  37
ATOM     37  C   UNL     1      14.199 190.678  45.460  1.00  0.00     0.084 C 
BRANCH  37  38
ATOM     38  C   UNL     1      13.634 189.726  44.397  1.00  0.00     0.016 C 
BRANCH  38  39
ATOM     39  C   UNL     1      14.063 188.254  44.494  1.00  0.00     0.001 C
ENDBRANCH  38  39
ENDBRANCH  37  38
ENDBRANCH  36  37
BRANCH  36  41
ATOM     41  C   UNL     1      12.837 191.589  47.325  1.00  0.00     0.084 C 
BRANCH  41  42
ATOM     42  C   UNL     1      11.611 190.702  47.566  1.00  0.00     0.016 C 
BRANCH  42  43
ATOM     43  C   UNL     1      11.895 189.283  48.062  1.00  0.00     0.001 C
ENDBRANCH  42  43
ENDBRANCH  41  42
ENDBRANCH  36  41
ENDBRANCH  35  36
ENDBRANCH  34  35
ENDBRANCH  33  34
ENDBRANCH  32  33
ENDBRANCH   2  27
TORSDOF 11
ENDMDL
MODEL 8
REMARK minimizedAffinity -4.92530298
REMARK CNNscore 0.136976808
REMARK CNNaffinity 5.52732468
REMARK SMILES C(=C(c1ccc(OCCN2CCCCCC2)cc1)c1ccc(OCCN2CCCCCC2)cc1)c1ccccc1
REMARK SMILES IDX 1 1 2 2 35 3 36 4 40 5 37 6 39 7 38 8 3 9 4 10 18 11 5 12
REMARK SMILES IDX 17 13 6 14 7 15 8 16 9 17 10 18 11 19 12 20 13 21 16 23
REMARK SMILES IDX 15 24 14 25 19 27 20 28 34 29 21 30 33 31 22 32 23 33 24 34
REMARK SMILES IDX 25 35 26 36 27 37 28 38 29 39 32 41 31 42 30 43
REMARK H PARENT
REMARK Flexibility Score:   68.800
ROOT
ATOM      1  C   UNL     1       8.081 192.481  38.702  1.00  0.00     0.017 C 
ATOM      2  C   UNL     1       8.470 193.658  39.245  1.00  0.00    -0.011 C 
ENDROOT
BRANCH   1   3
ATOM      3  C   UNL     1       7.564 192.233  37.345  1.00  0.00    -0.025 A 
ATOM      4  C   UNL     1       8.351 191.511  36.440  1.00  0.00     0.008 A 
ATOM      5  C   UNL     1       6.290 192.659  36.953  1.00  0.00     0.008 A 
ATOM      6  C   UNL     1       7.882 191.243  35.151  1.00  0.00     0.001 A 
ATOM      7  C   UNL     1       5.823 192.393  35.663  1.00  0.00     0.001 A 
ATOM      8  C   UNL     1       6.619 191.686  34.764  1.00  0.00     0.000 A 
ENDBRANCH   1   3
BRANCH   2   9
ATOM      9  C   UNL     1       8.481 194.922  38.461  1.00  0.00    -0.018 A 
ATOM     10  C   UNL     1       9.666 195.342  37.843  1.00  0.00     0.012 A 
ATOM     11  C   UNL     1       7.321 195.685  38.278  1.00  0.00     0.012 A 
ATOM     12  C   UNL     1       9.696 196.505  37.064  1.00  0.00     0.047 A 
ATOM     13  C   UNL     1       7.355 196.849  37.507  1.00  0.00     0.047 A 
ATOM     14  C   UNL     1       8.536 197.258  36.885  1.00  0.00     0.119 A 
BRANCH  14  15
ATOM     15  O   UNL     1       8.432 198.409  36.156  1.00  0.00    -0.492 OA
BRANCH  15  16
ATOM     16  C   UNL     1       7.358 199.302  36.469  1.00  0.00     0.245 C 
BRANCH  16  17
ATOM     17  C   UNL     1       6.431 199.478  35.253  1.00  0.00     0.126 C 
BRANCH  17  18
ATOM     18  N   UNL     1       6.870 198.872  33.978  1.00  0.00    -0.300 NA
BRANCH  18  19
ATOM     19  C   UNL     1       6.011 197.749  33.595  1.00  0.00     0.084 C 
BRANCH  19  20
ATOM     20  C   UNL     1       5.052 197.254  34.682  1.00  0.00     0.016 C 
BRANCH  20  21
ATOM     21  C   UNL     1       4.487 195.869  34.391  1.00  0.00     0.001 C
ENDBRANCH  20  21
ENDBRANCH  19  20
ENDBRANCH  18  19
BRANCH  18  23
ATOM     23  C   UNL     1       7.066 199.884  32.934  1.00  0.00     0.084 C 
BRANCH  23  24
ATOM     24  C   UNL     1       8.216 199.525  31.994  1.00  0.00     0.016 C 
BRANCH  24  25
ATOM     25  C   UNL     1       9.122 200.684  31.592  1.00  0.00     0.001 C
ENDBRANCH  24  25
ENDBRANCH  23  24
ENDBRANCH  18  23
ENDBRANCH  17  18
ENDBRANCH  16  17
ENDBRANCH  15  16
ENDBRANCH  14  15
ENDBRANCH   2   9
BRANCH   2  27
ATOM     27  C   UNL     1       8.919 193.617  40.665  1.00  0.00    -0.018 A 
ATOM     28  C   UNL     1       9.644 194.672  41.237  1.00  0.00     0.012 A 
ATOM     29  C   UNL     1       8.655 192.485  41.446  1.00  0.00     0.012 A 
ATOM     30  C   UNL     1      10.078 194.607  42.568  1.00  0.00     0.047 A 
ATOM     31  C   UNL     1       9.091 192.422  42.772  1.00  0.00     0.047 A 
ATOM     32  C   UNL     1       9.796 193.484  43.343  1.00  0.00     0.119 A 
BRANCH  32  33
ATOM     33  O   UNL     1      10.164 193.291  44.645  1.00  0.00    -0.492 OA
BRANCH  33  34
ATOM     34  C   UNL     1      11.187 194.143  45.162  1.00  0.00     0.245 C 
BRANCH  34  35
ATOM     35  C   UNL     1      12.460 193.315  45.436  1.00  0.00     0.126 C 
BRANCH  35  36
ATOM     36  N   UNL     1      12.856 193.202  46.854  1.00  0.00    -0.300 NA
BRANCH  36  37
ATOM     37  C   UNL     1      14.286 192.935  47.026  1.00  0.00     0.084 C 
BRANCH  37  38
ATOM     38  C   UNL     1      14.988 192.216  45.866  1.00  0.00     0.016 C 
BRANCH  38  39
ATOM     39  C   UNL     1      15.601 190.842  46.179  1.00  0.00     0.001 C
ENDBRANCH  38  39
ENDBRANCH  37  38
ENDBRANCH  36  37
BRANCH  36  41
ATOM     41  C   UNL     1      11.947 192.344  47.613  1.00  0.00     0.084 C 
BRANCH  41  42
ATOM     42  C   UNL     1      11.620 190.975  47.010  1.00  0.00     0.016 C 
BRANCH  42  43
ATOM     43  C   UNL     1      12.300 189.772  47.666  1.00  0.00     0.001 C
ENDBRANCH  42  43
ENDBRANCH  41  42
ENDBRANCH  36  41
ENDBRANCH  35  36
ENDBRANCH  34  35
ENDBRANCH  33  34
ENDBRANCH  32  33
ENDBRANCH   2  27
TORSDOF 11
ENDMDL
MODEL 9
REMARK minimizedAffinity -4.89611197
REMARK CNNscore 0.1148213
REMARK CNNaffinity 5.38803339
REMARK SMILES C(=C(c1ccc(OCCN2CCCCCC2)cc1)c1ccc(OCCN2CCCCCC2)cc1)c1ccccc1
REMARK SMILES IDX 1 1 2 2 35 3 36 4 40 5 37 6 39 7 38 8 3 9 4 10 18 11 5 12
REMARK SMILES IDX 17 13 6 14 7 15 8 16 9 17 10 18 11 19 12 20 13 21 16 23
REMARK SMILES IDX 15 24 14 25 19 27 20 28 34 29 21 30 33 31 22 32 23 33 24 34
REMARK SMILES IDX 25 35 26 36 27 37 28 38 29 39 32 41 31 42 30 43
REMARK H PARENT
REMARK Flexibility Score:   68.800
ROOT
ATOM      1  C   UNL     1       8.129 192.490  38.635  1.00  0.00     0.017 C 
ATOM      2  C   UNL     1       8.478 193.674  39.191  1.00  0.00    -0.011 C 
ENDROOT
BRANCH   1   3
ATOM      3  C   UNL     1       7.612 192.241  37.280  1.00  0.00    -0.025 A 
ATOM      4  C   UNL     1       8.396 191.514  36.376  1.00  0.00     0.008 A 
ATOM      5  C   UNL     1       6.339 192.669  36.887  1.00  0.00     0.008 A 
ATOM      6  C   UNL     1       7.926 191.244  35.088  1.00  0.00     0.001 A 
ATOM      7  C   UNL     1       5.870 192.400  35.598  1.00  0.00     0.001 A 
ATOM      8  C   UNL     1       6.664 191.690  34.700  1.00  0.00     0.000 A 
ENDBRANCH   1   3
BRANCH   2   9
ATOM      9  C   UNL     1       8.437 194.948  38.423  1.00  0.00    -0.018 A 
ATOM     10  C   UNL     1       7.321 195.788  38.537  1.00  0.00     0.012 A 
ATOM     11  C   UNL     1       9.509 195.360  37.623  1.00  0.00     0.012 A 
ATOM     12  C   UNL     1       7.273 197.012  37.860  1.00  0.00     0.047 A 
ATOM     13  C   UNL     1       9.455 196.579  36.941  1.00  0.00     0.047 A 
ATOM     14  C   UNL     1       8.346 197.417  37.067  1.00  0.00     0.119 A 
BRANCH  14  15
ATOM     15  O   UNL     1       8.422 198.580  36.353  1.00  0.00    -0.492 OA
BRANCH  15  16
ATOM     16  C   UNL     1       7.263 198.989  35.619  1.00  0.00     0.245 C 
BRANCH  16  17
ATOM     17  C   UNL     1       6.379 197.774  35.287  1.00  0.00     0.126 C 
BRANCH  17  18
ATOM     18  N   UNL     1       4.930 197.901  35.555  1.00  0.00    -0.300 NA
BRANCH  18  19
ATOM     19  C   UNL     1       4.565 199.283  35.877  1.00  0.00     0.084 C 
BRANCH  19  20
ATOM     20  C   UNL     1       3.426 199.874  35.040  1.00  0.00     0.016 C 
BRANCH  20  21
ATOM     21  C   UNL     1       2.207 200.249  35.875  1.00  0.00     0.001 C
ENDBRANCH  20  21
ENDBRANCH  19  20
ENDBRANCH  18  19
BRANCH  18  23
ATOM     23  C   UNL     1       4.124 197.280  34.499  1.00  0.00     0.084 C 
BRANCH  23  24
ATOM     24  C   UNL     1       4.990 196.658  33.405  1.00  0.00     0.016 C 
BRANCH  24  25
ATOM     25  C   UNL     1       4.656 195.214  33.044  1.00  0.00     0.001 C
ENDBRANCH  24  25
ENDBRANCH  23  24
ENDBRANCH  18  23
ENDBRANCH  17  18
ENDBRANCH  16  17
ENDBRANCH  15  16
ENDBRANCH  14  15
ENDBRANCH   2   9
BRANCH   2  27
ATOM     27  C   UNL     1       8.939 193.632  40.607  1.00  0.00    -0.018 A 
ATOM     28  C   UNL     1       9.674 194.685  41.172  1.00  0.00     0.012 A 
ATOM     29  C   UNL     1       8.678 192.502  41.391  1.00  0.00     0.012 A 
ATOM     30  C   UNL     1      10.120 194.619  42.499  1.00  0.00     0.047 A 
ATOM     31  C   UNL     1       9.126 192.438  42.713  1.00  0.00     0.047 A 
ATOM     32  C   UNL     1       9.839 193.497  43.277  1.00  0.00     0.119 A 
BRANCH  32  33
ATOM     33  O   UNL     1      10.218 193.303  44.576  1.00  0.00    -0.492 OA
BRANCH  33  34
ATOM     34  C   UNL     1      11.520 193.760  44.946  1.00  0.00     0.245 C 
BRANCH  34  35
ATOM     35  C   UNL     1      11.394 194.937  45.935  1.00  0.00     0.126 C 
BRANCH  35  36
ATOM     36  N   UNL     1      11.785 196.259  45.407  1.00  0.00    -0.300 NA
BRANCH  36  37
ATOM     37  C   UNL     1      13.184 196.310  44.978  1.00  0.00     0.084 C 
BRANCH  37  38
ATOM     38  C   UNL     1      14.192 196.841  46.006  1.00  0.00     0.016 C 
BRANCH  38  39
ATOM     39  C   UNL     1      14.718 195.832  47.039  1.00  0.00     0.001 C
ENDBRANCH  38  39
ENDBRANCH  37  38
ENDBRANCH  36  37
BRANCH  36  41
ATOM     41  C   UNL     1      11.339 197.351  46.272  1.00  0.00     0.084 C 
BRANCH  41  42
ATOM     42  C   UNL     1      10.705 196.961  47.611  1.00  0.00     0.016 C 
BRANCH  42  43
ATOM     43  C   UNL     1      11.599 197.100  48.844  1.00  0.00     0.001 C
ENDBRANCH  42  43
ENDBRANCH  41  42
ENDBRANCH  36  41
ENDBRANCH  35  36
ENDBRANCH  34  35
ENDBRANCH  33  34
ENDBRANCH  32  33
ENDBRANCH   2  27
TORSDOF 11
ENDMDL
