MODEL 1
REMARK minimizedAffinity -7.21116495
REMARK CNNscore 0.969551802
REMARK CNNaffinity 7.35532427
REMARK SMILES CC(C)C[C@@H](NC(=O)[C@H](CO)NC(=O)OCc1ccccc1)C(=O)N[C@@H](Cc1ccc(O)cc1)C(N)=O
REMARK SMILES IDX 5 1 4 2 2 3 1 4 3 5 6 6 7 7 8 8 9 10 10 11 11 12 12 14 13 15
REMARK SMILES IDX 14 16 15 18 16 19 17 20 18 21 22 22 19 23 21 24 20 25 23 26
REMARK SMILES IDX 24 27 25 28 26 30 27 31 28 32 29 33 34 34 30 35 33 36 31 37
REMARK SMILES IDX 32 38 35 40 36 41 37 42
REMARK H PARENT 6 9 11 13 12 17 25 29 32 39 36 43 36 44
ROOT
ATOM      1  C   UNL     1       7.920 193.278  38.879  1.00  0.00     0.171 C 
ENDROOT
BRANCH   1   2
ATOM      2  C   UNL     1       8.171 192.644  37.499  1.00  0.00     0.038 C 
BRANCH   2   3
ATOM      3  C   UNL     1       7.044 191.758  36.923  1.00  0.00    -0.015 C 
ATOM      4  C   UNL     1       7.648 190.738  35.952  1.00  0.00     0.007 C 
ATOM      5  C   UNL     1       5.952 192.552  36.208  1.00  0.00     0.007 C 
ENDBRANCH   2   3
ENDBRANCH   1   2
BRANCH   1   6
ATOM      6  N   UNL     1       8.729 192.689  39.941  1.00  0.00    -0.342 N 
ATOM      7  C   UNL     1       8.157 191.994  40.984  1.00  0.00     0.245 C 
ATOM      8  O   UNL     1       6.971 191.671  40.995  1.00  0.00    -0.273 OA
ATOM      9  H   UNL     1       9.644 193.117  40.079  1.00  0.00     0.164 HD
BRANCH   7  10
ATOM     10  C   UNL     1       9.138 191.584  42.093  1.00  0.00     0.200 C 
BRANCH  10  11
ATOM     11  C   UNL     1       9.300 192.766  43.055  1.00  0.00     0.191 C 
BRANCH  11  12
ATOM     12  O   UNL     1       8.985 193.994  42.398  1.00  0.00    -0.394 OA
ATOM     13  H   UNL     1       9.010 194.696  43.070  1.00  0.00     0.210 HD
ENDBRANCH  11  12
ENDBRANCH  10  11
BRANCH  10  14
ATOM     14  N   UNL     1      10.404 191.210  41.474  1.00  0.00    -0.307 N 
ATOM     15  C   UNL     1      10.735 189.899  41.322  1.00  0.00     0.408 C 
ATOM     16  O   UNL     1      10.163 188.959  41.853  1.00  0.00    -0.225 OA
ATOM     17  H   UNL     1      10.785 191.809  40.753  1.00  0.00     0.168 HD
BRANCH  15  18
ATOM     18  O   UNL     1      11.773 189.803  40.462  1.00  0.00    -0.445 OA
BRANCH  18  19
ATOM     19  C   UNL     1      13.048 189.742  41.107  1.00  0.00     0.270 C 
BRANCH  19  20
ATOM     20  C   UNL     1      13.942 188.805  40.334  1.00  0.00    -0.011 A 
ATOM     21  C   UNL     1      13.459 187.573  39.872  1.00  0.00     0.007 A 
ATOM     22  C   UNL     1      15.264 189.168  40.034  1.00  0.00     0.007 A 
ATOM     23  C   UNL     1      14.283 186.718  39.137  1.00  0.00     0.000 A 
ATOM     24  C   UNL     1      16.088 188.312  39.301  1.00  0.00     0.000 A 
ATOM     25  C   UNL     1      15.597 187.087  38.854  1.00  0.00     0.000 A 
ENDBRANCH  19  20
ENDBRANCH  18  19
ENDBRANCH  15  18
ENDBRANCH  10  14
ENDBRANCH   7  10
ENDBRANCH   1   6
BRANCH   1  26
ATOM     26  C   UNL     1       8.151 194.802  38.883  1.00  0.00     0.243 C 
ATOM     27  O   UNL     1       7.258 195.602  38.600  1.00  0.00    -0.273 OA
ATOM     28  N   UNL     1       9.416 195.199  39.233  1.00  0.00    -0.342 N 
ATOM     29  H   UNL     1      10.167 194.519  39.337  1.00  0.00     0.164 HD
BRANCH  28  30
ATOM     30  C   UNL     1       9.813 196.608  39.234  1.00  0.00     0.175 C 
BRANCH  30  31
ATOM     31  C   UNL     1      10.998 196.843  40.186  1.00  0.00     0.070 C 
BRANCH  31  32
ATOM     32  C   UNL     1      12.001 195.713  40.191  1.00  0.00    -0.045 A 
ATOM     33  C   UNL     1      11.914 194.697  41.155  1.00  0.00     0.007 A 
ATOM     34  C   UNL     1      13.033 195.669  39.242  1.00  0.00     0.007 A 
ATOM     35  C   UNL     1      12.852 193.662  41.181  1.00  0.00     0.046 A 
ATOM     36  C   UNL     1      13.971 194.637  39.272  1.00  0.00     0.046 A 
ATOM     37  C   UNL     1      13.875 193.644  40.239  1.00  0.00     0.115 A 
BRANCH  37  38
ATOM     38  O   UNL     1      14.815 192.657  40.230  1.00  0.00    -0.508 OA
ATOM     39  H   UNL     1      14.590 192.009  40.917  1.00  0.00     0.293 HD
ENDBRANCH  37  38
ENDBRANCH  31  32
ENDBRANCH  30  31
BRANCH  30  40
ATOM     40  C   UNL     1      10.180 196.960  37.781  1.00  0.00     0.240 C 
ATOM     41  N   UNL     1      10.205 198.283  37.456  1.00  0.00    -0.368 N 
ATOM     42  O   UNL     1      10.439 196.103  36.937  1.00  0.00    -0.273 OA
ATOM     43  H   UNL     1      10.120 199.022  38.144  1.00  0.00     0.159 HD
ATOM     44  H   UNL     1      10.488 198.535  36.517  1.00  0.00     0.159 HD
ENDBRANCH  30  40
ENDBRANCH  28  30
ENDBRANCH   1  26
TORSDOF 16
ENDMDL
MODEL 2
REMARK minimizedAffinity -7.77250862
REMARK CNNscore 0.95392096
REMARK CNNaffinity 7.39078283
REMARK SMILES CC(C)C[C@@H](NC(=O)[C@H](CO)NC(=O)OCc1ccccc1)C(=O)N[C@@H](Cc1ccc(O)cc1)C(N)=O
REMARK SMILES IDX 5 1 4 2 2 3 1 4 3 5 6 6 7 7 8 8 9 10 10 11 11 12 12 14 13 15
REMARK SMILES IDX 14 16 15 18 16 19 17 20 18 21 22 22 19 23 21 24 20 25 23 26
REMARK SMILES IDX 24 27 25 28 26 30 27 31 28 32 29 33 34 34 30 35 33 36 31 37
REMARK SMILES IDX 32 38 35 40 36 41 37 42
REMARK H PARENT 6 9 11 13 12 17 25 29 32 39 36 43 36 44
ROOT
ATOM      1  C   UNL     1       7.320 192.264  37.895  1.00  0.00     0.171 C 
ENDROOT
BRANCH   1   2
ATOM      2  C   UNL     1       7.563 191.137  36.875  1.00  0.00     0.038 C 
BRANCH   2   3
ATOM      3  C   UNL     1       7.961 191.563  35.444  1.00  0.00    -0.015 C 
ATOM      4  C   UNL     1       6.876 191.109  34.461  1.00  0.00     0.007 C 
ATOM      5  C   UNL     1       9.312 191.009  34.998  1.00  0.00     0.007 C 
ENDBRANCH   2   3
ENDBRANCH   1   2
BRANCH   1   6
ATOM      6  N   UNL     1       8.351 192.344  38.924  1.00  0.00    -0.342 N 
ATOM      7  C   UNL     1       8.061 192.146  40.255  1.00  0.00     0.245 C 
ATOM      8  O   UNL     1       6.975 191.717  40.641  1.00  0.00    -0.273 OA
ATOM      9  H   UNL     1       9.169 192.900  38.677  1.00  0.00     0.164 HD
BRANCH   7  10
ATOM     10  C   UNL     1       9.228 192.428  41.214  1.00  0.00     0.200 C 
BRANCH  10  11
ATOM     11  C   UNL     1       9.546 193.926  41.161  1.00  0.00     0.191 C 
BRANCH  11  12
ATOM     12  O   UNL     1       8.387 194.671  40.788  1.00  0.00    -0.394 OA
ATOM     13  H   UNL     1       8.613 195.614  40.861  1.00  0.00     0.210 HD
ENDBRANCH  11  12
ENDBRANCH  10  11
BRANCH  10  14
ATOM     14  N   UNL     1      10.367 191.615  40.803  1.00  0.00    -0.307 N 
ATOM     15  C   UNL     1      10.483 190.328  41.227  1.00  0.00     0.408 C 
ATOM     16  O   UNL     1       9.821 189.814  42.116  1.00  0.00    -0.225 OA
ATOM     17  H   UNL     1      10.774 191.779  39.892  1.00  0.00     0.168 HD
BRANCH  15  18
ATOM     18  O   UNL     1      11.420 189.701  40.481  1.00  0.00    -0.445 OA
BRANCH  18  19
ATOM     19  C   UNL     1      12.280 188.848  41.242  1.00  0.00     0.270 C 
BRANCH  19  20
ATOM     20  C   UNL     1      13.510 188.541  40.423  1.00  0.00    -0.011 A 
ATOM     21  C   UNL     1      13.518 187.469  39.520  1.00  0.00     0.007 A 
ATOM     22  C   UNL     1      14.655 189.346  40.529  1.00  0.00     0.007 A 
ATOM     23  C   UNL     1      14.651 187.201  38.748  1.00  0.00     0.000 A 
ATOM     24  C   UNL     1      15.787 189.077  39.758  1.00  0.00     0.000 A 
ATOM     25  C   UNL     1      15.784 188.003  38.869  1.00  0.00     0.000 A 
ENDBRANCH  19  20
ENDBRANCH  18  19
ENDBRANCH  15  18
ENDBRANCH  10  14
ENDBRANCH   7  10
ENDBRANCH   1   6
BRANCH   1  26
ATOM     26  C   UNL     1       7.190 193.648  37.231  1.00  0.00     0.243 C 
ATOM     27  O   UNL     1       6.361 193.877  36.349  1.00  0.00    -0.273 OA
ATOM     28  N   UNL     1       8.054 194.603  37.700  1.00  0.00    -0.342 N 
ATOM     29  H   UNL     1       8.811 194.356  38.334  1.00  0.00     0.164 HD
BRANCH  28  30
ATOM     30  C   UNL     1       8.095 195.954  37.137  1.00  0.00     0.175 C 
BRANCH  30  31
ATOM     31  C   UNL     1       7.067 196.867  37.826  1.00  0.00     0.070 C 
BRANCH  31  32
ATOM     32  C   UNL     1       6.357 197.801  36.874  1.00  0.00    -0.045 A 
ATOM     33  C   UNL     1       5.957 197.348  35.607  1.00  0.00     0.007 A 
ATOM     34  C   UNL     1       6.098 199.130  37.236  1.00  0.00     0.007 A 
ATOM     35  C   UNL     1       5.323 198.212  34.712  1.00  0.00     0.046 A 
ATOM     36  C   UNL     1       5.468 199.994  36.340  1.00  0.00     0.046 A 
ATOM     37  C   UNL     1       5.087 199.531  35.087  1.00  0.00     0.115 A 
BRANCH  37  38
ATOM     38  O   UNL     1       4.476 200.410  34.244  1.00  0.00    -0.508 OA
ATOM     39  H   UNL     1       4.216 199.936  33.437  1.00  0.00     0.293 HD
ENDBRANCH  37  38
ENDBRANCH  31  32
ENDBRANCH  30  31
BRANCH  30  40
ATOM     40  C   UNL     1       9.531 196.470  37.343  1.00  0.00     0.240 C 
ATOM     41  N   UNL     1       9.990 196.515  38.625  1.00  0.00    -0.368 N 
ATOM     42  O   UNL     1      10.246 196.832  36.409  1.00  0.00    -0.273 OA
ATOM     43  H   UNL     1       9.486 196.114  39.406  1.00  0.00     0.159 HD
ATOM     44  H   UNL     1      10.947 196.809  38.776  1.00  0.00     0.159 HD
ENDBRANCH  30  40
ENDBRANCH  28  30
ENDBRANCH   1  26
TORSDOF 16
ENDMDL
MODEL 3
REMARK minimizedAffinity -6.9279027
REMARK CNNscore 0.915977478
REMARK CNNaffinity 7.2750926
REMARK SMILES CC(C)C[C@@H](NC(=O)[C@H](CO)NC(=O)OCc1ccccc1)C(=O)N[C@@H](Cc1ccc(O)cc1)C(N)=O
REMARK SMILES IDX 5 1 4 2 2 3 1 4 3 5 6 6 7 7 8 8 9 10 10 11 11 12 12 14 13 15
REMARK SMILES IDX 14 16 15 18 16 19 17 20 18 21 22 22 19 23 21 24 20 25 23 26
REMARK SMILES IDX 24 27 25 28 26 30 27 31 28 32 29 33 34 34 30 35 33 36 31 37
REMARK SMILES IDX 32 38 35 40 36 41 37 42
REMARK H PARENT 6 9 11 13 12 17 25 29 32 39 36 43 36 44
ROOT
ATOM      1  C   UNL     1       7.891 193.198  38.782  1.00  0.00     0.171 C 
ENDROOT
BRANCH   1   2
ATOM      2  C   UNL     1       8.140 192.548  37.409  1.00  0.00     0.038 C 
BRANCH   2   3
ATOM      3  C   UNL     1       7.012 191.657  36.842  1.00  0.00    -0.015 C 
ATOM      4  C   UNL     1       7.623 190.580  35.940  1.00  0.00     0.007 C 
ATOM      5  C   UNL     1       5.959 192.437  36.058  1.00  0.00     0.007 C 
ENDBRANCH   2   3
ENDBRANCH   1   2
BRANCH   1   6
ATOM      6  N   UNL     1       8.704 192.623  39.849  1.00  0.00    -0.342 N 
ATOM      7  C   UNL     1       8.137 191.938  40.900  1.00  0.00     0.245 C 
ATOM      8  O   UNL     1       6.952 191.610  40.918  1.00  0.00    -0.273 OA
ATOM      9  H   UNL     1       9.617 193.057  39.980  1.00  0.00     0.164 HD
BRANCH   7  10
ATOM     10  C   UNL     1       9.122 191.545  42.013  1.00  0.00     0.200 C 
BRANCH  10  11
ATOM     11  C   UNL     1       9.361 192.770  42.901  1.00  0.00     0.191 C 
BRANCH  11  12
ATOM     12  O   UNL     1      10.610 192.658  43.584  1.00  0.00    -0.394 OA
ATOM     13  H   UNL     1      10.758 193.496  44.056  1.00  0.00     0.210 HD
ENDBRANCH  11  12
ENDBRANCH  10  11
BRANCH  10  14
ATOM     14  N   UNL     1      10.355 191.075  41.391  1.00  0.00    -0.307 N 
ATOM     15  C   UNL     1      10.632 189.745  41.330  1.00  0.00     0.408 C 
ATOM     16  O   UNL     1      10.040 188.871  41.945  1.00  0.00    -0.225 OA
ATOM     17  H   UNL     1      10.738 191.603  40.618  1.00  0.00     0.168 HD
BRANCH  15  18
ATOM     18  O   UNL     1      11.640 189.543  40.453  1.00  0.00    -0.445 OA
BRANCH  18  19
ATOM     19  C   UNL     1      12.939 189.610  41.050  1.00  0.00     0.270 C 
BRANCH  19  20
ATOM     20  C   UNL     1      13.620 188.274  40.884  1.00  0.00    -0.011 A 
ATOM     21  C   UNL     1      14.099 187.572  41.999  1.00  0.00     0.007 A 
ATOM     22  C   UNL     1      13.755 187.696  39.612  1.00  0.00     0.007 A 
ATOM     23  C   UNL     1      14.709 186.325  41.844  1.00  0.00     0.000 A 
ATOM     24  C   UNL     1      14.366 186.451  39.458  1.00  0.00     0.000 A 
ATOM     25  C   UNL     1      14.844 185.767  40.574  1.00  0.00     0.000 A 
ENDBRANCH  19  20
ENDBRANCH  18  19
ENDBRANCH  15  18
ENDBRANCH  10  14
ENDBRANCH   7  10
ENDBRANCH   1   6
BRANCH   1  26
ATOM     26  C   UNL     1       8.115 194.722  38.768  1.00  0.00     0.243 C 
ATOM     27  O   UNL     1       7.180 195.523  38.768  1.00  0.00    -0.273 OA
ATOM     28  N   UNL     1       9.428 195.117  38.765  1.00  0.00    -0.342 N 
ATOM     29  H   UNL     1      10.177 194.440  38.636  1.00  0.00     0.164 HD
BRANCH  28  30
ATOM     30  C   UNL     1       9.812 196.529  38.699  1.00  0.00     0.175 C 
BRANCH  30  31
ATOM     31  C   UNL     1      11.201 196.749  39.321  1.00  0.00     0.070 C 
BRANCH  31  32
ATOM     32  C   UNL     1      11.467 198.186  39.708  1.00  0.00    -0.045 A 
ATOM     33  C   UNL     1      10.592 198.857  40.575  1.00  0.00     0.007 A 
ATOM     34  C   UNL     1      12.581 198.868  39.198  1.00  0.00     0.007 A 
ATOM     35  C   UNL     1      10.818 200.192  40.917  1.00  0.00     0.046 A 
ATOM     36  C   UNL     1      12.803 200.203  39.537  1.00  0.00     0.046 A 
ATOM     37  C   UNL     1      11.922 200.855  40.390  1.00  0.00     0.115 A 
BRANCH  37  38
ATOM     38  O   UNL     1      12.178 202.158  40.692  1.00  0.00    -0.508 OA
ATOM     39  H   UNL     1      11.519 202.462  41.338  1.00  0.00     0.293 HD
ENDBRANCH  37  38
ENDBRANCH  31  32
ENDBRANCH  30  31
BRANCH  30  40
ATOM     40  C   UNL     1       9.796 196.916  37.209  1.00  0.00     0.240 C 
ATOM     41  N   UNL     1       8.632 197.429  36.720  1.00  0.00    -0.368 N 
ATOM     42  O   UNL     1      10.774 196.774  36.476  1.00  0.00    -0.273 OA
ATOM     43  H   UNL     1       7.847 197.677  37.310  1.00  0.00     0.159 HD
ATOM     44  H   UNL     1       8.616 197.731  35.754  1.00  0.00     0.159 HD
ENDBRANCH  30  40
ENDBRANCH  28  30
ENDBRANCH   1  26
TORSDOF 16
ENDMDL
MODEL 4
REMARK minimizedAffinity -7.06894064
REMARK CNNscore 0.886871397
REMARK CNNaffinity 7.32648039
REMARK SMILES CC(C)C[C@@H](NC(=O)[C@H](CO)NC(=O)OCc1ccccc1)C(=O)N[C@@H](Cc1ccc(O)cc1)C(N)=O
REMARK SMILES IDX 5 1 4 2 2 3 1 4 3 5 6 6 7 7 8 8 9 10 10 11 11 12 12 14 13 15
REMARK SMILES IDX 14 16 15 18 16 19 17 20 18 21 22 22 19 23 21 24 20 25 23 26
REMARK SMILES IDX 24 27 25 28 26 30 27 31 28 32 29 33 34 34 30 35 33 36 31 37
REMARK SMILES IDX 32 38 35 40 36 41 37 42
REMARK H PARENT 6 9 11 13 12 17 25 29 32 39 36 43 36 44
ROOT
ATOM      1  C   UNL     1      10.616 192.171  42.060  1.00  0.00     0.171 C 
ENDROOT
BRANCH   1   2
ATOM      2  C   UNL     1      11.345 192.773  43.274  1.00  0.00     0.038 C 
BRANCH   2   3
ATOM      3  C   UNL     1      10.473 193.176  44.485  1.00  0.00    -0.015 C 
ATOM      4  C   UNL     1      10.231 194.688  44.454  1.00  0.00     0.007 C 
ATOM      5  C   UNL     1      11.085 192.788  45.829  1.00  0.00     0.007 C 
ENDBRANCH   2   3
ENDBRANCH   1   2
BRANCH   1   6
ATOM      6  N   UNL     1      10.344 193.146  41.008  1.00  0.00    -0.342 N 
ATOM      7  C   UNL     1      11.336 193.949  40.492  1.00  0.00     0.245 C 
ATOM      8  O   UNL     1      12.528 193.777  40.746  1.00  0.00    -0.273 OA
ATOM      9  H   UNL     1       9.376 193.460  40.946  1.00  0.00     0.164 HD
BRANCH   7  10
ATOM     10  C   UNL     1      10.844 195.025  39.512  1.00  0.00     0.200 C 
BRANCH  10  11
ATOM     11  C   UNL     1      11.155 196.401  40.110  1.00  0.00     0.191 C 
BRANCH  11  12
ATOM     12  O   UNL     1      11.315 197.372  39.076  1.00  0.00    -0.394 OA
ATOM     13  H   UNL     1      11.415 198.239  39.505  1.00  0.00     0.210 HD
ENDBRANCH  11  12
ENDBRANCH  10  11
BRANCH  10  14
ATOM     14  N   UNL     1       9.414 194.834  39.300  1.00  0.00    -0.307 N 
ATOM     15  C   UNL     1       8.859 195.081  38.083  1.00  0.00     0.408 C 
ATOM     16  O   UNL     1       9.408 195.666  37.162  1.00  0.00    -0.225 OA
ATOM     17  H   UNL     1       8.941 194.106  39.819  1.00  0.00     0.168 HD
BRANCH  15  18
ATOM     18  O   UNL     1       7.619 194.543  38.046  1.00  0.00    -0.445 OA
BRANCH  18  19
ATOM     19  C   UNL     1       7.587 193.154  38.386  1.00  0.00     0.270 C 
BRANCH  19  20
ATOM     20  C   UNL     1       7.413 192.347  37.124  1.00  0.00    -0.011 A 
ATOM     21  C   UNL     1       8.227 191.235  36.868  1.00  0.00     0.007 A 
ATOM     22  C   UNL     1       6.409 192.677  36.201  1.00  0.00     0.007 A 
ATOM     23  C   UNL     1       8.048 190.477  35.708  1.00  0.00     0.000 A 
ATOM     24  C   UNL     1       6.232 191.920  35.041  1.00  0.00     0.000 A 
ATOM     25  C   UNL     1       7.053 190.821  34.795  1.00  0.00     0.000 A 
ENDBRANCH  19  20
ENDBRANCH  18  19
ENDBRANCH  15  18
ENDBRANCH  10  14
ENDBRANCH   7  10
ENDBRANCH   1   6
BRANCH   1  26
ATOM     26  C   UNL     1      11.377 190.985  41.438  1.00  0.00     0.243 C 
ATOM     27  O   UNL     1      10.906 190.312  40.520  1.00  0.00    -0.273 OA
ATOM     28  N   UNL     1      12.616 190.742  41.972  1.00  0.00    -0.342 N 
ATOM     29  H   UNL     1      12.927 191.229  42.811  1.00  0.00     0.164 HD
BRANCH  28  30
ATOM     30  C   UNL     1      13.445 189.620  41.529  1.00  0.00     0.175 C 
BRANCH  30  31
ATOM     31  C   UNL     1      14.670 190.118  40.746  1.00  0.00     0.070 C 
BRANCH  31  32
ATOM     32  C   UNL     1      15.397 189.022  40.003  1.00  0.00    -0.045 A 
ATOM     33  C   UNL     1      16.800 189.006  39.963  1.00  0.00     0.007 A 
ATOM     34  C   UNL     1      14.684 188.016  39.336  1.00  0.00     0.007 A 
ATOM     35  C   UNL     1      17.478 188.010  39.257  1.00  0.00     0.046 A 
ATOM     36  C   UNL     1      15.363 187.024  38.628  1.00  0.00     0.046 A 
ATOM     37  C   UNL     1      16.751 187.028  38.592  1.00  0.00     0.115 A 
BRANCH  37  38
ATOM     38  O   UNL     1      17.371 186.041  37.887  1.00  0.00    -0.508 OA
ATOM     39  H   UNL     1      18.331 186.136  37.998  1.00  0.00     0.293 HD
ENDBRANCH  37  38
ENDBRANCH  31  32
ENDBRANCH  30  31
BRANCH  30  40
ATOM     40  C   UNL     1      13.861 188.856  42.800  1.00  0.00     0.240 C 
ATOM     41  N   UNL     1      14.517 189.568  43.758  1.00  0.00    -0.368 N 
ATOM     42  O   UNL     1      13.626 187.659  42.961  1.00  0.00    -0.273 OA
ATOM     43  H   UNL     1      14.622 190.576  43.722  1.00  0.00     0.159 HD
ATOM     44  H   UNL     1      14.759 189.094  44.619  1.00  0.00     0.159 HD
ENDBRANCH  30  40
ENDBRANCH  28  30
ENDBRANCH   1  26
TORSDOF 16
ENDMDL
MODEL 5
REMARK minimizedAffinity -6.58979368
REMARK CNNscore 0.83197087
REMARK CNNaffinity 7.15689135
REMARK SMILES CC(C)C[C@@H](NC(=O)[C@H](CO)NC(=O)OCc1ccccc1)C(=O)N[C@@H](Cc1ccc(O)cc1)C(N)=O
REMARK SMILES IDX 5 1 4 2 2 3 1 4 3 5 6 6 7 7 8 8 9 10 10 11 11 12 12 14 13 15
REMARK SMILES IDX 14 16 15 18 16 19 17 20 18 21 22 22 19 23 21 24 20 25 23 26
REMARK SMILES IDX 24 27 25 28 26 30 27 31 28 32 29 33 34 34 30 35 33 36 31 37
REMARK SMILES IDX 32 38 35 40 36 41 37 42
REMARK H PARENT 6 9 11 13 12 17 25 29 32 39 36 43 36 44
ROOT
ATOM      1  C   UNL     1      10.600 195.767  39.069  1.00  0.00     0.171 C 
ENDROOT
BRANCH   1   2
ATOM      2  C   UNL     1      10.786 197.074  39.860  1.00  0.00     0.038 C 
BRANCH   2   3
ATOM      3  C   UNL     1      12.238 197.548  40.097  1.00  0.00    -0.015 C 
ATOM      4  C   UNL     1      13.156 196.907  39.050  1.00  0.00     0.007 C 
ATOM      5  C   UNL     1      12.762 197.226  41.494  1.00  0.00     0.007 C 
ENDBRANCH   2   3
ENDBRANCH   1   2
BRANCH   1   6
ATOM      6  N   UNL     1      10.057 194.677  39.873  1.00  0.00    -0.342 N 
ATOM      7  C   UNL     1      10.870 193.712  40.425  1.00  0.00     0.245 C 
ATOM      8  O   UNL     1      12.096 193.801  40.433  1.00  0.00    -0.273 OA
ATOM      9  H   UNL     1       9.078 194.454  39.698  1.00  0.00     0.164 HD
BRANCH   7  10
ATOM     10  C   UNL     1      10.119 192.554  41.101  1.00  0.00     0.200 C 
BRANCH  10  11
ATOM     11  C   UNL     1      11.124 191.436  41.399  1.00  0.00     0.191 C 
BRANCH  11  12
ATOM     12  O   UNL     1      10.950 190.350  40.488  1.00  0.00    -0.394 OA
ATOM     13  H   UNL     1      11.667 189.714  40.656  1.00  0.00     0.210 HD
ENDBRANCH  11  12
ENDBRANCH  10  11
BRANCH  10  14
ATOM     14  N   UNL     1       9.059 192.108  40.204  1.00  0.00    -0.307 N 
ATOM     15  C   UNL     1       7.754 192.210  40.576  1.00  0.00     0.408 C 
ATOM     16  O   UNL     1       7.358 192.453  41.706  1.00  0.00    -0.225 OA
ATOM     17  H   UNL     1       9.202 192.192  39.206  1.00  0.00     0.168 HD
BRANCH  15  18
ATOM     18  O   UNL     1       6.971 192.036  39.488  1.00  0.00    -0.445 OA
BRANCH  18  19
ATOM     19  C   UNL     1       7.217 192.987  38.448  1.00  0.00     0.270 C 
BRANCH  19  20
ATOM     20  C   UNL     1       7.169 192.276  37.118  1.00  0.00    -0.011 A 
ATOM     21  C   UNL     1       8.033 191.207  36.847  1.00  0.00     0.007 A 
ATOM     22  C   UNL     1       6.234 192.654  36.142  1.00  0.00     0.007 A 
ATOM     23  C   UNL     1       7.971 190.537  35.623  1.00  0.00     0.000 A 
ATOM     24  C   UNL     1       6.174 191.986  34.918  1.00  0.00     0.000 A 
ATOM     25  C   UNL     1       7.044 190.928  34.659  1.00  0.00     0.000 A 
ENDBRANCH  19  20
ENDBRANCH  18  19
ENDBRANCH  15  18
ENDBRANCH  10  14
ENDBRANCH   7  10
ENDBRANCH   1   6
BRANCH   1  26
ATOM     26  C   UNL     1       9.705 195.946  37.828  1.00  0.00     0.243 C 
ATOM     27  O   UNL     1       9.386 195.000  37.107  1.00  0.00    -0.273 OA
ATOM     28  N   UNL     1       9.284 197.230  37.594  1.00  0.00    -0.342 N 
ATOM     29  H   UNL     1       9.664 198.010  38.127  1.00  0.00     0.164 HD
BRANCH  28  30
ATOM     30  C   UNL     1       8.471 197.578  36.426  1.00  0.00     0.175 C 
BRANCH  30  31
ATOM     31  C   UNL     1       7.242 198.404  36.840  1.00  0.00     0.070 C 
BRANCH  31  32
ATOM     32  C   UNL     1       5.974 197.997  36.126  1.00  0.00    -0.045 A 
ATOM     33  C   UNL     1       4.812 198.773  36.253  1.00  0.00     0.007 A 
ATOM     34  C   UNL     1       5.938 196.837  35.339  1.00  0.00     0.007 A 
ATOM     35  C   UNL     1       3.630 198.389  35.616  1.00  0.00     0.046 A 
ATOM     36  C   UNL     1       4.755 196.453  34.707  1.00  0.00     0.046 A 
ATOM     37  C   UNL     1       3.612 197.228  34.850  1.00  0.00     0.115 A 
BRANCH  37  38
ATOM     38  O   UNL     1       2.480 196.813  34.216  1.00  0.00    -0.508 OA
ATOM     39  H   UNL     1       1.785 197.477  34.356  1.00  0.00     0.293 HD
ENDBRANCH  37  38
ENDBRANCH  31  32
ENDBRANCH  30  31
BRANCH  30  40
ATOM     40  C   UNL     1       9.388 198.370  35.476  1.00  0.00     0.240 C 
ATOM     41  N   UNL     1       9.949 199.509  35.971  1.00  0.00    -0.368 N 
ATOM     42  O   UNL     1       9.614 198.012  34.321  1.00  0.00    -0.273 OA
ATOM     43  H   UNL     1       9.890 199.774  36.947  1.00  0.00     0.159 HD
ATOM     44  H   UNL     1      10.590 200.019  35.376  1.00  0.00     0.159 HD
ENDBRANCH  30  40
ENDBRANCH  28  30
ENDBRANCH   1  26
TORSDOF 16
ENDMDL
MODEL 6
REMARK minimizedAffinity -7.30376005
REMARK CNNscore 0.789952576
REMARK CNNaffinity 6.6983819
REMARK SMILES CC(C)C[C@@H](NC(=O)[C@H](CO)NC(=O)OCc1ccccc1)C(=O)N[C@@H](Cc1ccc(O)cc1)C(N)=O
REMARK SMILES IDX 5 1 4 2 2 3 1 4 3 5 6 6 7 7 8 8 9 10 10 11 11 12 12 14 13 15
REMARK SMILES IDX 14 16 15 18 16 19 17 20 18 21 22 22 19 23 21 24 20 25 23 26
REMARK SMILES IDX 24 27 25 28 26 30 27 31 28 32 29 33 34 34 30 35 33 36 31 37
REMARK SMILES IDX 32 38 35 40 36 41 37 42
REMARK H PARENT 6 9 11 13 12 17 25 29 32 39 36 43 36 44
ROOT
ATOM      1  C   UNL     1       7.380 193.693  38.493  1.00  0.00     0.171 C 
ENDROOT
BRANCH   1   2
ATOM      2  C   UNL     1       6.828 192.509  37.680  1.00  0.00     0.038 C 
BRANCH   2   3
ATOM      3  C   UNL     1       7.536 192.187  36.344  1.00  0.00    -0.015 C 
ATOM      4  C   UNL     1       6.495 192.129  35.221  1.00  0.00     0.007 C 
ATOM      5  C   UNL     1       8.322 190.878  36.374  1.00  0.00     0.007 C 
ENDBRANCH   2   3
ENDBRANCH   1   2
BRANCH   1   6
ATOM      6  N   UNL     1       8.378 193.299  39.483  1.00  0.00    -0.342 N 
ATOM      7  C   UNL     1       8.065 193.186  40.819  1.00  0.00     0.245 C 
ATOM      8  O   UNL     1       6.909 193.229  41.236  1.00  0.00    -0.273 OA
ATOM      9  H   UNL     1       9.346 193.476  39.218  1.00  0.00     0.164 HD
BRANCH   7  10
ATOM     10  C   UNL     1       9.268 192.922  41.738  1.00  0.00     0.200 C 
BRANCH  10  11
ATOM     11  C   UNL     1       9.931 194.265  42.063  1.00  0.00     0.191 C 
BRANCH  11  12
ATOM     12  O   UNL     1       9.566 194.700  43.372  1.00  0.00    -0.394 OA
ATOM     13  H   UNL     1      10.083 195.501  43.566  1.00  0.00     0.210 HD
ENDBRANCH  11  12
ENDBRANCH  10  11
BRANCH  10  14
ATOM     14  N   UNL     1      10.182 192.017  41.051  1.00  0.00    -0.307 N 
ATOM     15  C   UNL     1      10.130 190.678  41.285  1.00  0.00     0.408 C 
ATOM     16  O   UNL     1       9.518 190.143  42.197  1.00  0.00    -0.225 OA
ATOM     17  H   UNL     1      10.481 192.251  40.113  1.00  0.00     0.168 HD
BRANCH  15  18
ATOM     18  O   UNL     1      10.832 190.035  40.326  1.00  0.00    -0.445 OA
BRANCH  18  19
ATOM     19  C   UNL     1      11.338 188.763  40.742  1.00  0.00     0.270 C 
BRANCH  19  20
ATOM     20  C   UNL     1      12.842 188.777  40.633  1.00  0.00    -0.011 A 
ATOM     21  C   UNL     1      13.587 189.844  41.152  1.00  0.00     0.007 A 
ATOM     22  C   UNL     1      13.523 187.702  40.040  1.00  0.00     0.007 A 
ATOM     23  C   UNL     1      14.981 189.843  41.069  1.00  0.00     0.000 A 
ATOM     24  C   UNL     1      14.916 187.703  39.956  1.00  0.00     0.000 A 
ATOM     25  C   UNL     1      15.645 188.775  40.470  1.00  0.00     0.000 A 
ENDBRANCH  19  20
ENDBRANCH  18  19
ENDBRANCH  15  18
ENDBRANCH  10  14
ENDBRANCH   7  10
ENDBRANCH   1   6
BRANCH   1  26
ATOM     26  C   UNL     1       7.990 194.792  37.602  1.00  0.00     0.243 C 
ATOM     27  O   UNL     1       9.052 194.634  36.999  1.00  0.00    -0.273 OA
ATOM     28  N   UNL     1       7.259 195.950  37.523  1.00  0.00    -0.342 N 
ATOM     29  H   UNL     1       6.455 196.102  38.129  1.00  0.00     0.164 HD
BRANCH  28  30
ATOM     30  C   UNL     1       7.726 197.110  36.762  1.00  0.00     0.175 C 
BRANCH  30  31
ATOM     31  C   UNL     1       6.620 198.173  36.649  1.00  0.00     0.070 C 
BRANCH  31  32
ATOM     32  C   UNL     1       5.419 197.711  35.857  1.00  0.00    -0.045 A 
ATOM     33  C   UNL     1       4.180 198.351  36.016  1.00  0.00     0.007 A 
ATOM     34  C   UNL     1       5.523 196.635  34.965  1.00  0.00     0.007 A 
ATOM     35  C   UNL     1       3.060 197.914  35.305  1.00  0.00     0.046 A 
ATOM     36  C   UNL     1       4.402 196.197  34.259  1.00  0.00     0.046 A 
ATOM     37  C   UNL     1       3.182 196.836  34.434  1.00  0.00     0.115 A 
BRANCH  37  38
ATOM     38  O   UNL     1       2.114 196.373  33.725  1.00  0.00    -0.508 OA
ATOM     39  H   UNL     1       1.351 196.947  33.902  1.00  0.00     0.293 HD
ENDBRANCH  37  38
ENDBRANCH  31  32
ENDBRANCH  30  31
BRANCH  30  40
ATOM     40  C   UNL     1       8.957 197.656  37.509  1.00  0.00     0.240 C 
ATOM     41  N   UNL     1       9.037 197.386  38.841  1.00  0.00    -0.368 N 
ATOM     42  O   UNL     1       9.836 198.311  36.948  1.00  0.00    -0.273 OA
ATOM     43  H   UNL     1       8.406 196.752  39.315  1.00  0.00     0.159 HD
ATOM     44  H   UNL     1       9.862 197.698  39.339  1.00  0.00     0.159 HD
ENDBRANCH  30  40
ENDBRANCH  28  30
ENDBRANCH   1  26
TORSDOF 16
ENDMDL
MODEL 7
REMARK minimizedAffinity -7.38879871
REMARK CNNscore 0.785263062
REMARK CNNaffinity 6.73282814
REMARK SMILES CC(C)C[C@@H](NC(=O)[C@H](CO)NC(=O)OCc1ccccc1)C(=O)N[C@@H](Cc1ccc(O)cc1)C(N)=O
REMARK SMILES IDX 5 1 4 2 2 3 1 4 3 5 6 6 7 7 8 8 9 10 10 11 11 12 12 14 13 15
REMARK SMILES IDX 14 16 15 18 16 19 17 20 18 21 22 22 19 23 21 24 20 25 23 26
REMARK SMILES IDX 24 27 25 28 26 30 27 31 28 32 29 33 34 34 30 35 33 36 31 37
REMARK SMILES IDX 32 38 35 40 36 41 37 42
REMARK H PARENT 6 9 11 13 12 17 25 29 32 39 36 43 36 44
ROOT
ATOM      1  C   UNL     1       7.782 192.773  38.480  1.00  0.00     0.171 C 
ENDROOT
BRANCH   1   2
ATOM      2  C   UNL     1       7.959 192.124  37.096  1.00  0.00     0.038 C 
BRANCH   2   3
ATOM      3  C   UNL     1       6.670 191.764  36.323  1.00  0.00    -0.015 C 
ATOM      4  C   UNL     1       7.041 191.001  35.048  1.00  0.00     0.007 C 
ATOM      5  C   UNL     1       5.822 192.981  35.957  1.00  0.00     0.007 C 
ENDBRANCH   2   3
ENDBRANCH   1   2
BRANCH   1   6
ATOM      6  N   UNL     1       8.649 192.198  39.504  1.00  0.00    -0.342 N 
ATOM      7  C   UNL     1       8.161 191.810  40.731  1.00  0.00     0.245 C 
ATOM      8  O   UNL     1       6.957 191.752  40.978  1.00  0.00    -0.273 OA
ATOM      9  H   UNL     1       9.637 192.439  39.422  1.00  0.00     0.164 HD
BRANCH   7  10
ATOM     10  C   UNL     1       9.236 191.380  41.741  1.00  0.00     0.200 C 
BRANCH  10  11
ATOM     11  C   UNL     1       9.597 192.591  42.608  1.00  0.00     0.191 C 
BRANCH  11  12
ATOM     12  O   UNL     1       8.900 193.753  42.160  1.00  0.00    -0.394 OA
ATOM     13  H   UNL     1       9.088 194.466  42.795  1.00  0.00     0.210 HD
ENDBRANCH  11  12
ENDBRANCH  10  11
BRANCH  10  14
ATOM     14  N   UNL     1      10.388 190.878  41.000  1.00  0.00    -0.307 N 
ATOM     15  C   UNL     1      11.112 189.831  41.480  1.00  0.00     0.408 C 
ATOM     16  O   UNL     1      11.030 189.374  42.610  1.00  0.00    -0.225 OA
ATOM     17  H   UNL     1      10.373 190.929  39.990  1.00  0.00     0.168 HD
BRANCH  15  18
ATOM     18  O   UNL     1      11.907 189.357  40.496  1.00  0.00    -0.445 OA
BRANCH  18  19
ATOM     19  C   UNL     1      13.304 189.476  40.781  1.00  0.00     0.270 C 
BRANCH  19  20
ATOM     20  C   UNL     1      13.959 188.132  40.579  1.00  0.00    -0.011 A 
ATOM     21  C   UNL     1      14.268 187.315  41.675  1.00  0.00     0.007 A 
ATOM     22  C   UNL     1      14.239 187.664  39.286  1.00  0.00     0.007 A 
ATOM     23  C   UNL     1      14.854 186.062  41.483  1.00  0.00     0.000 A 
ATOM     24  C   UNL     1      14.826 186.412  39.095  1.00  0.00     0.000 A 
ATOM     25  C   UNL     1      15.135 185.612  40.194  1.00  0.00     0.000 A 
ENDBRANCH  19  20
ENDBRANCH  18  19
ENDBRANCH  15  18
ENDBRANCH  10  14
ENDBRANCH   7  10
ENDBRANCH   1   6
BRANCH   1  26
ATOM     26  C   UNL     1       8.007 194.297  38.455  1.00  0.00     0.243 C 
ATOM     27  O   UNL     1       7.365 195.067  39.171  1.00  0.00    -0.273 OA
ATOM     28  N   UNL     1       8.977 194.729  37.587  1.00  0.00    -0.342 N 
ATOM     29  H   UNL     1       9.401 194.089  36.918  1.00  0.00     0.164 HD
BRANCH  28  30
ATOM     30  C   UNL     1       9.277 196.150  37.404  1.00  0.00     0.175 C 
BRANCH  30  31
ATOM     31  C   UNL     1       8.010 197.005  37.581  1.00  0.00     0.070 C 
BRANCH  31  32
ATOM     32  C   UNL     1       7.480 197.571  36.284  1.00  0.00    -0.045 A 
ATOM     33  C   UNL     1       6.169 197.287  35.874  1.00  0.00     0.007 A 
ATOM     34  C   UNL     1       8.291 198.376  35.472  1.00  0.00     0.007 A 
ATOM     35  C   UNL     1       5.680 197.787  34.664  1.00  0.00     0.046 A 
ATOM     36  C   UNL     1       7.803 198.871  34.262  1.00  0.00     0.046 A 
ATOM     37  C   UNL     1       6.505 198.573  33.867  1.00  0.00     0.115 A 
BRANCH  37  38
ATOM     38  O   UNL     1       6.072 199.077  32.677  1.00  0.00    -0.508 OA
ATOM     39  H   UNL     1       5.138 198.839  32.561  1.00  0.00     0.293 HD
ENDBRANCH  37  38
ENDBRANCH  31  32
ENDBRANCH  30  31
BRANCH  30  40
ATOM     40  C   UNL     1      10.348 196.510  38.450  1.00  0.00     0.240 C 
ATOM     41  N   UNL     1       9.915 196.727  39.724  1.00  0.00    -0.368 N 
ATOM     42  O   UNL     1      11.542 196.605  38.170  1.00  0.00    -0.273 OA
ATOM     43  H   UNL     1       8.966 196.540  40.024  1.00  0.00     0.159 HD
ATOM     44  H   UNL     1      10.610 196.920  40.434  1.00  0.00     0.159 HD
ENDBRANCH  30  40
ENDBRANCH  28  30
ENDBRANCH   1  26
TORSDOF 16
ENDMDL
MODEL 8
REMARK minimizedAffinity -6.15031958
REMARK CNNscore 0.76776588
REMARK CNNaffinity 6.77335787
REMARK SMILES CC(C)C[C@@H](NC(=O)[C@H](CO)NC(=O)OCc1ccccc1)C(=O)N[C@@H](Cc1ccc(O)cc1)C(N)=O
REMARK SMILES IDX 5 1 4 2 2 3 1 4 3 5 6 6 7 7 8 8 9 10 10 11 11 12 12 14 13 15
REMARK SMILES IDX 14 16 15 18 16 19 17 20 18 21 22 22 19 23 21 24 20 25 23 26
REMARK SMILES IDX 24 27 25 28 26 30 27 31 28 32 29 33 34 34 30 35 33 36 31 37
REMARK SMILES IDX 32 38 35 40 36 41 37 42
REMARK H PARENT 6 9 11 13 12 17 25 29 32 39 36 43 36 44
ROOT
ATOM      1  C   UNL     1       8.085 194.352  38.078  1.00  0.00     0.171 C 
ENDROOT
BRANCH   1   2
ATOM      2  C   UNL     1       8.047 193.322  36.935  1.00  0.00     0.038 C 
BRANCH   2   3
ATOM      3  C   UNL     1       6.982 192.206  37.035  1.00  0.00    -0.015 C 
ATOM      4  C   UNL     1       7.504 190.945  36.340  1.00  0.00     0.007 C 
ATOM      5  C   UNL     1       5.635 192.597  36.431  1.00  0.00     0.007 C 
ENDBRANCH   2   3
ENDBRANCH   1   2
BRANCH   1   6
ATOM      6  N   UNL     1       8.900 193.927  39.211  1.00  0.00    -0.342 N 
ATOM      7  C   UNL     1       8.352 193.714  40.456  1.00  0.00     0.245 C 
ATOM      8  O   UNL     1       7.138 193.688  40.651  1.00  0.00    -0.273 OA
ATOM      9  H   UNL     1       9.891 194.156  39.144  1.00  0.00     0.164 HD
BRANCH   7  10
ATOM     10  C   UNL     1       9.376 193.431  41.566  1.00  0.00     0.200 C 
BRANCH  10  11
ATOM     11  C   UNL     1       8.914 192.196  42.346  1.00  0.00     0.191 C 
BRANCH  11  12
ATOM     12  O   UNL     1       8.406 191.202  41.456  1.00  0.00    -0.394 OA
ATOM     13  H   UNL     1       8.217 190.408  41.986  1.00  0.00     0.210 HD
ENDBRANCH  11  12
ENDBRANCH  10  11
BRANCH  10  14
ATOM     14  N   UNL     1       9.467 194.610  42.420  1.00  0.00    -0.307 N 
ATOM     15  C   UNL     1      10.661 194.986  42.950  1.00  0.00     0.408 C 
ATOM     16  O   UNL     1      11.675 194.304  42.963  1.00  0.00    -0.225 OA
ATOM     17  H   UNL     1       8.843 195.386  42.240  1.00  0.00     0.168 HD
BRANCH  15  18
ATOM     18  O   UNL     1      10.556 196.247  43.426  1.00  0.00    -0.445 OA
BRANCH  18  19
ATOM     19  C   UNL     1      11.789 196.776  43.923  1.00  0.00     0.270 C 
BRANCH  19  20
ATOM     20  C   UNL     1      11.594 197.200  45.358  1.00  0.00    -0.011 A 
ATOM     21  C   UNL     1      12.224 198.348  45.857  1.00  0.00     0.007 A 
ATOM     22  C   UNL     1      10.749 196.468  46.208  1.00  0.00     0.007 A 
ATOM     23  C   UNL     1      12.023 198.749  47.179  1.00  0.00     0.000 A 
ATOM     24  C   UNL     1      10.550 196.869  47.530  1.00  0.00     0.000 A 
ATOM     25  C   UNL     1      11.189 198.010  48.015  1.00  0.00     0.000 A 
ENDBRANCH  19  20
ENDBRANCH  18  19
ENDBRANCH  15  18
ENDBRANCH  10  14
ENDBRANCH   7  10
ENDBRANCH   1   6
BRANCH   1  26
ATOM     26  C   UNL     1       8.582 195.735  37.615  1.00  0.00     0.243 C 
ATOM     27  O   UNL     1       9.504 195.865  36.808  1.00  0.00    -0.273 OA
ATOM     28  N   UNL     1       7.918 196.805  38.157  1.00  0.00    -0.342 N 
ATOM     29  H   UNL     1       7.250 196.675  38.915  1.00  0.00     0.164 HD
BRANCH  28  30
ATOM     30  C   UNL     1       8.303 198.186  37.862  1.00  0.00     0.175 C 
BRANCH  30  31
ATOM     31  C   UNL     1       7.290 199.177  38.460  1.00  0.00     0.070 C 
BRANCH  31  32
ATOM     32  C   UNL     1       6.240 199.634  37.474  1.00  0.00    -0.045 A 
ATOM     33  C   UNL     1       5.887 200.990  37.397  1.00  0.00     0.007 A 
ATOM     34  C   UNL     1       5.599 198.713  36.634  1.00  0.00     0.007 A 
ATOM     35  C   UNL     1       4.900 201.416  36.506  1.00  0.00     0.046 A 
ATOM     36  C   UNL     1       4.610 199.139  35.748  1.00  0.00     0.046 A 
ATOM     37  C   UNL     1       4.267 200.484  35.691  1.00  0.00     0.115 A 
BRANCH  37  38
ATOM     38  O   UNL     1       3.295 200.854  34.811  1.00  0.00    -0.508 OA
ATOM     39  H   UNL     1       3.203 201.821  34.838  1.00  0.00     0.293 HD
ENDBRANCH  37  38
ENDBRANCH  31  32
ENDBRANCH  30  31
BRANCH  30  40
ATOM     40  C   UNL     1       9.707 198.387  38.461  1.00  0.00     0.240 C 
ATOM     41  N   UNL     1      10.734 198.547  37.580  1.00  0.00    -0.368 N 
ATOM     42  O   UNL     1       9.915 198.400  39.674  1.00  0.00    -0.273 OA
ATOM     43  H   UNL     1      10.593 198.666  36.584  1.00  0.00     0.159 HD
ATOM     44  H   UNL     1      11.657 198.725  37.955  1.00  0.00     0.159 HD
ENDBRANCH  30  40
ENDBRANCH  28  30
ENDBRANCH   1  26
TORSDOF 16
ENDMDL
MODEL 9
REMARK minimizedAffinity -7.33293676
REMARK CNNscore 0.76652205
REMARK CNNaffinity 7.20381308
REMARK SMILES CC(C)C[C@@H](NC(=O)[C@H](CO)NC(=O)OCc1ccccc1)C(=O)N[C@@H](Cc1ccc(O)cc1)C(N)=O
REMARK SMILES IDX 5 1 4 2 2 3 1 4 3 5 6 6 7 7 8 8 9 10 10 11 11 12 12 14 13 15
REMARK SMILES IDX 14 16 15 18 16 19 17 20 18 21 22 22 19 23 21 24 20 25 23 26
REMARK SMILES IDX 24 27 25 28 26 30 27 31 28 32 29 33 34 34 30 35 33 36 31 37
REMARK SMILES IDX 32 38 35 40 36 41 37 42
REMARK H PARENT 6 9 11 13 12 17 25 29 32 39 36 43 36 44
ROOT
ATOM      1  C   UNL     1       8.259 193.709  38.104  1.00  0.00     0.171 C 
ENDROOT
BRANCH   1   2
ATOM      2  C   UNL     1       7.337 192.588  37.590  1.00  0.00     0.038 C 
BRANCH   2   3
ATOM      3  C   UNL     1       7.643 192.021  36.185  1.00  0.00    -0.015 C 
ATOM      4  C   UNL     1       6.372 192.072  35.331  1.00  0.00     0.007 C 
ATOM      5  C   UNL     1       8.180 190.592  36.211  1.00  0.00     0.007 C 
ENDBRANCH   2   3
ENDBRANCH   1   2
BRANCH   1   6
ATOM      6  N   UNL     1       7.857 195.038  37.656  1.00  0.00    -0.342 N 
ATOM      7  C   UNL     1       8.783 195.984  37.277  1.00  0.00     0.245 C 
ATOM      8  O   UNL     1       9.974 195.721  37.117  1.00  0.00    -0.273 OA
ATOM      9  H   UNL     1       6.943 195.350  37.984  1.00  0.00     0.164 HD
BRANCH   7  10
ATOM     10  C   UNL     1       8.197 197.376  36.992  1.00  0.00     0.200 C 
BRANCH  10  11
ATOM     11  C   UNL     1       8.455 198.268  38.211  1.00  0.00     0.191 C 
BRANCH  11  12
ATOM     12  O   UNL     1       9.288 197.596  39.156  1.00  0.00    -0.394 OA
ATOM     13  H   UNL     1       9.500 198.233  39.859  1.00  0.00     0.210 HD
ENDBRANCH  11  12
ENDBRANCH  10  11
BRANCH  10  14
ATOM     14  N   UNL     1       6.772 197.227  36.719  1.00  0.00    -0.307 N 
ATOM     15  C   UNL     1       6.260 197.593  35.512  1.00  0.00     0.408 C 
ATOM     16  O   UNL     1       6.846 198.251  34.666  1.00  0.00    -0.225 OA
ATOM     17  H   UNL     1       6.274 196.462  37.153  1.00  0.00     0.168 HD
BRANCH  15  18
ATOM     18  O   UNL     1       5.016 197.080  35.387  1.00  0.00    -0.445 OA
BRANCH  18  19
ATOM     19  C   UNL     1       4.188 197.803  34.471  1.00  0.00     0.270 C 
BRANCH  19  20
ATOM     20  C   UNL     1       3.389 196.818  33.655  1.00  0.00    -0.011 A 
ATOM     21  C   UNL     1       1.992 196.772  33.757  1.00  0.00     0.007 A 
ATOM     22  C   UNL     1       4.031 195.955  32.753  1.00  0.00     0.007 A 
ATOM     23  C   UNL     1       1.254 195.873  32.983  1.00  0.00     0.000 A 
ATOM     24  C   UNL     1       3.292 195.057  31.981  1.00  0.00     0.000 A 
ATOM     25  C   UNL     1       1.904 195.016  32.098  1.00  0.00     0.000 A 
ENDBRANCH  19  20
ENDBRANCH  18  19
ENDBRANCH  15  18
ENDBRANCH  10  14
ENDBRANCH   7  10
ENDBRANCH   1   6
BRANCH   1  26
ATOM     26  C   UNL     1       8.370 193.728  39.640  1.00  0.00     0.243 C 
ATOM     27  O   UNL     1       7.623 194.409  40.344  1.00  0.00    -0.273 OA
ATOM     28  N   UNL     1       9.352 192.926  40.164  1.00  0.00    -0.342 N 
ATOM     29  H   UNL     1      10.035 192.475  39.558  1.00  0.00     0.164 HD
BRANCH  28  30
ATOM     30  C   UNL     1       9.623 192.872  41.602  1.00  0.00     0.175 C 
BRANCH  30  31
ATOM     31  C   UNL     1       9.493 194.266  42.237  1.00  0.00     0.070 C 
BRANCH  31  32
ATOM     32  C   UNL     1      10.066 194.348  43.633  1.00  0.00    -0.045 A 
ATOM     33  C   UNL     1      10.612 193.207  44.240  1.00  0.00     0.007 A 
ATOM     34  C   UNL     1      10.049 195.557  44.343  1.00  0.00     0.007 A 
ATOM     35  C   UNL     1      11.121 193.269  45.539  1.00  0.00     0.046 A 
ATOM     36  C   UNL     1      10.554 195.616  45.642  1.00  0.00     0.046 A 
ATOM     37  C   UNL     1      11.084 194.475  46.230  1.00  0.00     0.115 A 
BRANCH  37  38
ATOM     38  O   UNL     1      11.564 194.580  47.501  1.00  0.00    -0.508 OA
ATOM     39  H   UNL     1      11.953 193.728  47.757  1.00  0.00     0.293 HD
ENDBRANCH  37  38
ENDBRANCH  31  32
ENDBRANCH  30  31
BRANCH  30  40
ATOM     40  C   UNL     1       8.608 191.882  42.201  1.00  0.00     0.240 C 
ATOM     41  N   UNL     1       7.332 192.332  42.359  1.00  0.00    -0.368 N 
ATOM     42  O   UNL     1       8.914 190.737  42.532  1.00  0.00    -0.273 OA
ATOM     43  H   UNL     1       7.009 193.218  41.990  1.00  0.00     0.159 HD
ATOM     44  H   UNL     1       6.640 191.681  42.710  1.00  0.00     0.159 HD
ENDBRANCH  30  40
ENDBRANCH  28  30
ENDBRANCH   1  26
TORSDOF 16
ENDMDL
