MODEL 1
REMARK minimizedAffinity -8.37340832
REMARK CNNscore 0.66212976
REMARK CNNaffinity 6.83003855
REMARK SMILES C=C(c1ccc(C(=O)NS(=O)(=O)c2ccc(NCCSc3ccccc3)c([N+](=O)[O-])c2)cc1)c1cc2c(cc1C)C(C)(C)CCC2(C)C
REMARK SMILES IDX 13 1 14 2 15 3 16 4 27 5 31 6 10 7 11 8 12 9 9 10 7 11 8 12
REMARK SMILES IDX 6 14 3 15 4 16 33 17 5 18 32 19 2 20 1 21 34 22 35 23 39 24
REMARK SMILES IDX 36 25 38 26 37 27 46 28 41 29 45 30 44 31 40 32 47 33 48 34
REMARK SMILES IDX 42 35 43 36 28 37 29 38 30 39 17 40 18 42 19 43 20 44 21 45
REMARK SMILES IDX 22 46 26 47 23 48 25 49 24 50
REMARK H PARENT 9 13 17 41
ROOT
ATOM      1  C   UNL     1      16.357   7.563   6.455  1.00  0.00     0.094 A 
ATOM      2  C   UNL     1      16.593   8.512   5.463  1.00  0.00     0.025 A 
ATOM      3  C   UNL     1      16.558   9.877   5.780  1.00  0.00     0.034 A 
ATOM      4  C   UNL     1      16.314  10.335   7.087  1.00  0.00     0.113 A 
ATOM      5  C   UNL     1      16.056   9.338   8.062  1.00  0.00     0.293 A 
ATOM      6  C   UNL     1      16.075   7.964   7.759  1.00  0.00     0.110 A 
ENDROOT
BRANCH   1   7
ATOM      7  S   UNL     1      16.338   5.837   6.048  1.00  0.00     0.264 S 
ATOM      8  O   UNL     1      17.611   5.294   6.475  1.00  0.00    -0.201 OA
ATOM      9  O   UNL     1      15.094   5.252   6.491  1.00  0.00    -0.201 OA
BRANCH   7  10
ATOM     10  N   UNL     1      16.390   5.826   4.387  1.00  0.00    -0.245 N 
ATOM     11  C   UNL     1      16.740   4.715   3.613  1.00  0.00     0.264 C 
ATOM     12  O   UNL     1      16.947   3.612   4.090  1.00  0.00    -0.268 OA
ATOM     13  H   UNL     1      16.231   6.746   3.999  1.00  0.00     0.183 HD
BRANCH  11  14
ATOM     14  C   UNL     1      16.835   4.944   2.142  1.00  0.00     0.040 A 
ATOM     15  C   UNL     1      16.912   5.502  -0.628  1.00  0.00    -0.018 A 
ATOM     16  C   UNL     1      16.604   6.510   0.296  1.00  0.00     0.009 A 
ATOM     17  C   UNL     1      17.184   4.213  -0.147  1.00  0.00     0.009 A 
ATOM     18  C   UNL     1      16.569   6.235   1.668  1.00  0.00     0.014 A 
ATOM     19  C   UNL     1      17.152   3.934   1.225  1.00  0.00     0.014 A 
BRANCH  15  20
ATOM     20  C   UNL     1      16.899   5.754  -2.090  1.00  0.00    -0.018 C 
ATOM     21  C   UNL     1      18.059   5.735  -2.772  1.00  0.00     0.018 C 
BRANCH  20  22
ATOM     22  C   UNL     1      15.661   6.010  -2.870  1.00  0.00    -0.015 A 
ATOM     23  C   UNL     1      15.323   7.336  -3.193  1.00  0.00     0.013 A 
ATOM     24  C   UNL     1      14.833   4.972  -3.316  1.00  0.00    -0.043 A 
ATOM     25  C   UNL     1      14.181   7.668  -3.957  1.00  0.00    -0.038 A 
ATOM     26  C   UNL     1      13.718   5.289  -4.107  1.00  0.00     0.008 A 
ATOM     27  C   UNL     1      13.382   6.617  -4.458  1.00  0.00    -0.038 A 
ATOM     28  C   UNL     1      13.875   9.143  -4.244  1.00  0.00    -0.010 C 
ATOM     29  C   UNL     1      12.145   6.868  -5.332  1.00  0.00    -0.010 C 
ATOM     30  C   UNL     1      12.448   9.332  -4.806  1.00  0.00     0.012 C 
ATOM     31  C   UNL     1      12.121   8.311  -5.882  1.00  0.00     0.012 C 
ATOM     32  C   UNL     1      15.116   3.528  -3.000  1.00  0.00     0.045 C 
ATOM     33  C   UNL     1      14.911   9.681  -5.256  1.00  0.00     0.016 C 
ATOM     34  C   UNL     1      13.956  10.002  -2.960  1.00  0.00     0.016 C 
ATOM     35  C   UNL     1      12.110   5.932  -6.564  1.00  0.00     0.016 C 
ATOM     36  C   UNL     1      10.878   6.604  -4.488  1.00  0.00     0.016 C 
ENDBRANCH  20  22
ENDBRANCH  15  20
ENDBRANCH  11  14
ENDBRANCH   7  10
ENDBRANCH   1   7
BRANCH   5  37
ATOM     37  N   UNL     1      15.774   9.706   9.456  1.00  0.00     0.065 N 
ATOM     38  O   UNL     1      14.696   9.338   9.950  1.00  0.00    -0.258 OA
ATOM     39  O   UNL     1      16.618  10.395  10.046  1.00  0.00    -0.258 OA
ENDBRANCH   5  37
BRANCH   4  40
ATOM     40  N   UNL     1      16.180  11.698   7.366  1.00  0.00    -0.379 N 
ATOM     41  H   UNL     1      17.053  12.223   7.242  1.00  0.00     0.160 HD
BRANCH  40  42
ATOM     42  C   UNL     1      15.002  12.493   7.009  1.00  0.00     0.124 C 
BRANCH  42  43
ATOM     43  C   UNL     1      15.158  13.959   7.427  1.00  0.00     0.096 C 
BRANCH  43  44
ATOM     44  S   UNL     1      14.598  15.112   6.120  1.00  0.00    -0.124 SA
BRANCH  44  45
ATOM     45  C   UNL     1      12.891  14.616   5.972  1.00  0.00     0.007 A 
ATOM     46  C   UNL     1      12.332  14.452   4.701  1.00  0.00     0.015 A 
ATOM     47  C   UNL     1      12.098  14.401   7.103  1.00  0.00     0.015 A 
ATOM     48  C   UNL     1      11.002  14.052   4.562  1.00  0.00     0.001 A 
ATOM     49  C   UNL     1      10.766  14.003   6.963  1.00  0.00     0.001 A 
ATOM     50  C   UNL     1      10.221  13.823   5.693  1.00  0.00     0.000 A 
ENDBRANCH  44  45
ENDBRANCH  43  44
ENDBRANCH  42  43
ENDBRANCH  40  42
ENDBRANCH   4  40
TORSDOF 11
ENDMDL
MODEL 2
REMARK minimizedAffinity -7.51404619
REMARK CNNscore 0.235602394
REMARK CNNaffinity 5.88889503
REMARK SMILES C=C(c1ccc(C(=O)NS(=O)(=O)c2ccc(NCCSc3ccccc3)c([N+](=O)[O-])c2)cc1)c1cc2c(cc1C)C(C)(C)CCC2(C)C
REMARK SMILES IDX 13 1 14 2 15 3 16 4 27 5 31 6 10 7 11 8 12 9 9 10 7 11 8 12
REMARK SMILES IDX 6 14 3 15 4 16 33 17 5 18 32 19 2 20 1 21 34 22 35 23 39 24
REMARK SMILES IDX 36 25 38 26 37 27 46 28 41 29 45 30 44 31 40 32 47 33 48 34
REMARK SMILES IDX 42 35 43 36 28 37 29 38 30 39 17 40 18 42 19 43 20 44 21 45
REMARK SMILES IDX 22 46 26 47 23 48 25 49 24 50
REMARK H PARENT 9 13 17 41
ROOT
ATOM      1  C   UNL     1      -1.613  -0.264  -8.484  1.00  0.00     0.094 A 
ATOM      2  C   UNL     1      -2.660  -0.689  -7.670  1.00  0.00     0.025 A 
ATOM      3  C   UNL     1      -3.693  -1.467  -8.210  1.00  0.00     0.034 A 
ATOM      4  C   UNL     1      -3.703  -1.866  -9.559  1.00  0.00     0.113 A 
ATOM      5  C   UNL     1      -2.631  -1.392 -10.359  1.00  0.00     0.293 A 
ATOM      6  C   UNL     1      -1.592  -0.600  -9.836  1.00  0.00     0.110 A 
ENDROOT
BRANCH   1   7
ATOM      7  S   UNL     1      -0.337   0.773  -7.822  1.00  0.00     0.264 S 
ATOM      8  O   UNL     1       0.017   0.226  -6.528  1.00  0.00    -0.201 OA
ATOM      9  O   UNL     1       0.670   1.003  -8.832  1.00  0.00    -0.201 OA
BRANCH   7  10
ATOM     10  N   UNL     1      -1.122   2.202  -7.496  1.00  0.00    -0.245 N 
ATOM     11  C   UNL     1      -0.529   3.311  -6.886  1.00  0.00     0.264 C 
ATOM     12  O   UNL     1       0.660   3.367  -6.622  1.00  0.00    -0.268 OA
ATOM     13  H   UNL     1      -2.110   2.144  -7.704  1.00  0.00     0.183 HD
BRANCH  11  14
ATOM     14  C   UNL     1      -1.436   4.455  -6.579  1.00  0.00     0.040 A 
ATOM     15  C   UNL     1      -3.233   6.592  -6.138  1.00  0.00    -0.018 A 
ATOM     16  C   UNL     1      -3.604   5.498  -6.932  1.00  0.00     0.009 A 
ATOM     17  C   UNL     1      -1.953   6.599  -5.566  1.00  0.00     0.009 A 
ATOM     18  C   UNL     1      -2.717   4.438  -7.149  1.00  0.00     0.014 A 
ATOM     19  C   UNL     1      -1.062   5.540  -5.777  1.00  0.00     0.014 A 
BRANCH  15  20
ATOM     20  C   UNL     1      -4.135   7.753  -5.941  1.00  0.00    -0.018 C 
ATOM     21  C   UNL     1      -3.731   8.975  -6.337  1.00  0.00     0.018 C 
BRANCH  20  22
ATOM     22  C   UNL     1      -5.492   7.650  -5.345  1.00  0.00    -0.015 A 
ATOM     23  C   UNL     1      -5.618   7.622  -3.945  1.00  0.00     0.013 A 
ATOM     24  C   UNL     1      -6.650   7.605  -6.131  1.00  0.00    -0.043 A 
ATOM     25  C   UNL     1      -6.871   7.557  -3.293  1.00  0.00    -0.038 A 
ATOM     26  C   UNL     1      -7.900   7.578  -5.492  1.00  0.00     0.008 A 
ATOM     27  C   UNL     1      -8.039   7.575  -4.085  1.00  0.00    -0.038 A 
ATOM     28  C   UNL     1      -6.915   7.508  -1.761  1.00  0.00    -0.010 C 
ATOM     29  C   UNL     1      -9.448   7.548  -3.475  1.00  0.00    -0.010 C 
ATOM     30  C   UNL     1      -8.319   7.123  -1.242  1.00  0.00     0.012 C 
ATOM     31  C   UNL     1      -9.420   7.879  -1.967  1.00  0.00     0.012 C 
ATOM     32  C   UNL     1      -6.599   7.615  -7.635  1.00  0.00     0.045 C 
ATOM     33  C   UNL     1      -6.513   8.892  -1.205  1.00  0.00     0.016 C 
ATOM     34  C   UNL     1      -5.936   6.452  -1.196  1.00  0.00     0.016 C 
ATOM     35  C   UNL     1     -10.380   8.594  -4.133  1.00  0.00     0.016 C 
ATOM     36  C   UNL     1     -10.060   6.147  -3.697  1.00  0.00     0.016 C 
ENDBRANCH  20  22
ENDBRANCH  15  20
ENDBRANCH  11  14
ENDBRANCH   7  10
ENDBRANCH   1   7
BRANCH   5  37
ATOM     37  N   UNL     1      -2.549  -1.735 -11.785  1.00  0.00     0.065 N 
ATOM     38  O   UNL     1      -1.748  -2.620 -12.127  1.00  0.00    -0.258 OA
ATOM     39  O   UNL     1      -3.262  -1.092 -12.568  1.00  0.00    -0.258 OA
ENDBRANCH   5  37
BRANCH   4  40
ATOM     40  N   UNL     1      -4.788  -2.553 -10.106  1.00  0.00    -0.379 N 
ATOM     41  H   UNL     1      -5.445  -1.940 -10.603  1.00  0.00     0.160 HD
BRANCH  40  42
ATOM     42  C   UNL     1      -4.688  -3.875 -10.730  1.00  0.00     0.124 C 
BRANCH  42  43
ATOM     43  C   UNL     1      -5.386  -3.914 -12.095  1.00  0.00     0.096 C 
BRANCH  43  44
ATOM     44  S   UNL     1      -5.218  -5.545 -12.908  1.00  0.00    -0.124 SA
BRANCH  44  45
ATOM     45  C   UNL     1      -5.926  -6.598 -11.656  1.00  0.00     0.007 A 
ATOM     46  C   UNL     1      -7.302  -6.544 -11.412  1.00  0.00     0.015 A 
ATOM     47  C   UNL     1      -5.130  -7.468 -10.904  1.00  0.00     0.015 A 
ATOM     48  C   UNL     1      -7.879  -7.369 -10.445  1.00  0.00     0.001 A 
ATOM     49  C   UNL     1      -5.709  -8.291  -9.936  1.00  0.00     0.001 A 
ATOM     50  C   UNL     1      -7.084  -8.245  -9.710  1.00  0.00     0.000 A 
ENDBRANCH  44  45
ENDBRANCH  43  44
ENDBRANCH  42  43
ENDBRANCH  40  42
ENDBRANCH   4  40
TORSDOF 11
ENDMDL
MODEL 3
REMARK minimizedAffinity -7.17699242
REMARK CNNscore 0.220781222
REMARK CNNaffinity 6.20615435
REMARK SMILES C=C(c1ccc(C(=O)NS(=O)(=O)c2ccc(NCCSc3ccccc3)c([N+](=O)[O-])c2)cc1)c1cc2c(cc1C)C(C)(C)CCC2(C)C
REMARK SMILES IDX 13 1 14 2 15 3 16 4 27 5 31 6 10 7 11 8 12 9 9 10 7 11 8 12
REMARK SMILES IDX 6 14 3 15 4 16 33 17 5 18 32 19 2 20 1 21 34 22 35 23 39 24
REMARK SMILES IDX 36 25 38 26 37 27 46 28 41 29 45 30 44 31 40 32 47 33 48 34
REMARK SMILES IDX 42 35 43 36 28 37 29 38 30 39 17 40 18 42 19 43 20 44 21 45
REMARK SMILES IDX 22 46 26 47 23 48 25 49 24 50
REMARK H PARENT 9 13 17 41
ROOT
ATOM      1  C   UNL     1      -6.507   4.998  12.584  1.00  0.00     0.094 A 
ATOM      2  C   UNL     1      -5.893   4.256  11.578  1.00  0.00     0.025 A 
ATOM      3  C   UNL     1      -4.558   4.512  11.236  1.00  0.00     0.034 A 
ATOM      4  C   UNL     1      -3.791   5.489  11.896  1.00  0.00     0.113 A 
ATOM      5  C   UNL     1      -4.460   6.240  12.897  1.00  0.00     0.293 A 
ATOM      6  C   UNL     1      -5.803   6.003  13.244  1.00  0.00     0.110 A 
ENDROOT
BRANCH   1   7
ATOM      7  S   UNL     1      -8.213   4.722  12.978  1.00  0.00     0.264 S 
ATOM      8  O   UNL     1      -8.384   3.290  13.110  1.00  0.00    -0.201 OA
ATOM      9  O   UNL     1      -8.614   5.619  14.037  1.00  0.00    -0.201 OA
BRANCH   7  10
ATOM     10  N   UNL     1      -9.010   5.134  11.579  1.00  0.00    -0.245 N 
ATOM     11  C   UNL     1      -9.315   6.445  11.197  1.00  0.00     0.264 C 
ATOM     12  O   UNL     1      -8.931   7.423  11.816  1.00  0.00    -0.268 OA
ATOM     13  H   UNL     1      -9.337   4.319  11.078  1.00  0.00     0.183 HD
BRANCH  11  14
ATOM     14  C   UNL     1     -10.135   6.594   9.960  1.00  0.00     0.040 A 
ATOM     15  C   UNL     1     -11.598   7.004   7.577  1.00  0.00    -0.018 A 
ATOM     16  C   UNL     1     -10.268   7.432   7.682  1.00  0.00     0.009 A 
ATOM     17  C   UNL     1     -12.184   6.366   8.679  1.00  0.00     0.009 A 
ATOM     18  C   UNL     1      -9.541   7.226   8.860  1.00  0.00     0.014 A 
ATOM     19  C   UNL     1     -11.461   6.155   9.860  1.00  0.00     0.014 A 
BRANCH  15  20
ATOM     20  C   UNL     1     -12.406   7.262   6.359  1.00  0.00    -0.018 C 
ATOM     21  C   UNL     1     -13.647   7.767   6.487  1.00  0.00     0.018 C 
BRANCH  20  22
ATOM     22  C   UNL     1     -11.916   7.015   4.979  1.00  0.00    -0.015 A 
ATOM     23  C   UNL     1     -10.946   7.877   4.438  1.00  0.00     0.013 A 
ATOM     24  C   UNL     1     -12.371   5.939   4.207  1.00  0.00    -0.043 A 
ATOM     25  C   UNL     1     -10.402   7.699   3.146  1.00  0.00    -0.038 A 
ATOM     26  C   UNL     1     -11.809   5.732   2.938  1.00  0.00     0.008 A 
ATOM     27  C   UNL     1     -10.816   6.578   2.394  1.00  0.00    -0.038 A 
ATOM     28  C   UNL     1      -9.363   8.701   2.626  1.00  0.00    -0.010 C 
ATOM     29  C   UNL     1     -10.256   6.271   0.998  1.00  0.00    -0.010 C 
ATOM     30  C   UNL     1      -9.122   8.539   1.109  1.00  0.00     0.012 C 
ATOM     31  C   UNL     1      -8.973   7.081   0.709  1.00  0.00     0.012 C 
ATOM     32  C   UNL     1     -13.418   4.981   4.707  1.00  0.00     0.045 C 
ATOM     33  C   UNL     1      -8.038   8.489   3.392  1.00  0.00     0.016 C 
ATOM     34  C   UNL     1      -9.823  10.162   2.842  1.00  0.00     0.016 C 
ATOM     35  C   UNL     1      -9.874   4.780   0.845  1.00  0.00     0.016 C 
ATOM     36  C   UNL     1     -11.338   6.603  -0.055  1.00  0.00     0.016 C 
ENDBRANCH  20  22
ENDBRANCH  15  20
ENDBRANCH  11  14
ENDBRANCH   7  10
ENDBRANCH   1   7
BRANCH   5  37
ATOM     37  N   UNL     1      -3.759   7.295  13.638  1.00  0.00     0.065 N 
ATOM     38  O   UNL     1      -4.209   8.451  13.574  1.00  0.00    -0.258 OA
ATOM     39  O   UNL     1      -2.735   6.974  14.258  1.00  0.00    -0.258 OA
ENDBRANCH   5  37
BRANCH   4  40
ATOM     40  N   UNL     1      -2.497   5.804  11.475  1.00  0.00    -0.379 N 
ATOM     41  H   UNL     1      -1.817   5.060  11.670  1.00  0.00     0.160 HD
BRANCH  40  42
ATOM     42  C   UNL     1      -2.193   6.517  10.231  1.00  0.00     0.124 C 
BRANCH  42  43
ATOM     43  C   UNL     1      -2.251   8.037  10.418  1.00  0.00     0.096 C 
BRANCH  43  44
ATOM     44  S   UNL     1      -0.992   8.634  11.604  1.00  0.00    -0.124 SA
BRANCH  44  45
ATOM     45  C   UNL     1      -0.436  10.105  10.761  1.00  0.00     0.007 A 
ATOM     46  C   UNL     1       0.384   9.982   9.635  1.00  0.00     0.015 A 
ATOM     47  C   UNL     1      -0.795  11.378  11.212  1.00  0.00     0.015 A 
ATOM     48  C   UNL     1       0.819  11.119   8.953  1.00  0.00     0.001 A 
ATOM     49  C   UNL     1      -0.358  12.516  10.530  1.00  0.00     0.001 A 
ATOM     50  C   UNL     1       0.445  12.385   9.398  1.00  0.00     0.000 A 
ENDBRANCH  44  45
ENDBRANCH  43  44
ENDBRANCH  42  43
ENDBRANCH  40  42
ENDBRANCH   4  40
TORSDOF 11
ENDMDL
MODEL 4
REMARK minimizedAffinity -6.41830492
REMARK CNNscore 0.203354359
REMARK CNNaffinity 5.27472639
REMARK SMILES C=C(c1ccc(C(=O)NS(=O)(=O)c2ccc(NCCSc3ccccc3)c([N+](=O)[O-])c2)cc1)c1cc2c(cc1C)C(C)(C)CCC2(C)C
REMARK SMILES IDX 13 1 14 2 15 3 16 4 27 5 31 6 10 7 11 8 12 9 9 10 7 11 8 12
REMARK SMILES IDX 6 14 3 15 4 16 33 17 5 18 32 19 2 20 1 21 34 22 35 23 39 24
REMARK SMILES IDX 36 25 38 26 37 27 46 28 41 29 45 30 44 31 40 32 47 33 48 34
REMARK SMILES IDX 42 35 43 36 28 37 29 38 30 39 17 40 18 42 19 43 20 44 21 45
REMARK SMILES IDX 22 46 26 47 23 48 25 49 24 50
REMARK H PARENT 9 13 17 41
ROOT
ATOM      1  C   UNL     1      -6.508   6.166  12.323  1.00  0.00     0.094 A 
ATOM      2  C   UNL     1      -6.227   7.440  12.810  1.00  0.00     0.025 A 
ATOM      3  C   UNL     1      -4.904   7.902  12.838  1.00  0.00     0.034 A 
ATOM      4  C   UNL     1      -3.831   7.127  12.361  1.00  0.00     0.113 A 
ATOM      5  C   UNL     1      -4.156   5.827  11.895  1.00  0.00     0.293 A 
ATOM      6  C   UNL     1      -5.477   5.344  11.872  1.00  0.00     0.110 A 
ENDROOT
BRANCH   1   7
ATOM      7  S   UNL     1      -8.170   5.551  12.344  1.00  0.00     0.264 S 
ATOM      8  O   UNL     1      -8.931   6.436  13.203  1.00  0.00    -0.201 OA
ATOM      9  O   UNL     1      -8.600   5.277  10.993  1.00  0.00    -0.201 OA
BRANCH   7  10
ATOM     10  N   UNL     1      -8.049   4.121  13.182  1.00  0.00    -0.245 N 
ATOM     11  C   UNL     1      -7.683   4.019  14.528  1.00  0.00     0.264 C 
ATOM     12  O   UNL     1      -7.513   4.991  15.245  1.00  0.00    -0.268 OA
ATOM     13  H   UNL     1      -8.177   3.320  12.579  1.00  0.00     0.183 HD
BRANCH  11  14
ATOM     14  C   UNL     1      -7.522   2.636  15.062  1.00  0.00     0.040 A 
ATOM     15  C   UNL     1      -7.368  -0.018  16.021  1.00  0.00    -0.018 A 
ATOM     16  C   UNL     1      -8.214   0.308  14.952  1.00  0.00     0.009 A 
ATOM     17  C   UNL     1      -6.598   1.000  16.600  1.00  0.00     0.009 A 
ATOM     18  C   UNL     1      -8.289   1.621  14.475  1.00  0.00     0.014 A 
ATOM     19  C   UNL     1      -6.668   2.316  16.124  1.00  0.00     0.014 A 
BRANCH  15  20
ATOM     20  C   UNL     1      -7.314  -1.391  16.582  1.00  0.00    -0.018 C 
ATOM     21  C   UNL     1      -8.022  -1.677  17.690  1.00  0.00     0.018 C 
BRANCH  20  22
ATOM     22  C   UNL     1      -6.533  -2.499  15.975  1.00  0.00    -0.015 A 
ATOM     23  C   UNL     1      -5.216  -2.722  16.414  1.00  0.00     0.013 A 
ATOM     24  C   UNL     1      -7.072  -3.343  14.996  1.00  0.00    -0.043 A 
ATOM     25  C   UNL     1      -4.412  -3.771  15.914  1.00  0.00    -0.038 A 
ATOM     26  C   UNL     1      -6.294  -4.411  14.522  1.00  0.00     0.008 A 
ATOM     27  C   UNL     1      -4.979  -4.659  14.974  1.00  0.00    -0.038 A 
ATOM     28  C   UNL     1      -2.977  -3.928  16.434  1.00  0.00    -0.010 C 
ATOM     29  C   UNL     1      -4.204  -5.854  14.400  1.00  0.00    -0.010 C 
ATOM     30  C   UNL     1      -2.157  -4.906  15.563  1.00  0.00     0.012 C 
ATOM     31  C   UNL     1      -2.940  -6.165  15.231  1.00  0.00     0.012 C 
ATOM     32  C   UNL     1      -8.467  -3.162  14.462  1.00  0.00     0.045 C 
ATOM     33  C   UNL     1      -3.027  -4.439  17.891  1.00  0.00     0.016 C 
ATOM     34  C   UNL     1      -2.214  -2.582  16.416  1.00  0.00     0.016 C 
ATOM     35  C   UNL     1      -5.055  -7.146  14.401  1.00  0.00     0.016 C 
ATOM     36  C   UNL     1      -3.811  -5.536  12.940  1.00  0.00     0.016 C 
ENDBRANCH  20  22
ENDBRANCH  15  20
ENDBRANCH  11  14
ENDBRANCH   7  10
ENDBRANCH   1   7
BRANCH   5  37
ATOM     37  N   UNL     1      -3.111   4.928  11.389  1.00  0.00     0.065 N 
ATOM     38  O   UNL     1      -2.062   4.824  12.046  1.00  0.00    -0.258 OA
ATOM     39  O   UNL     1      -3.326   4.352  10.313  1.00  0.00    -0.258 OA
ENDBRANCH   5  37
BRANCH   4  40
ATOM     40  N   UNL     1      -2.509   7.560  12.490  1.00  0.00    -0.379 N 
ATOM     41  H   UNL     1      -1.822   6.822  12.294  1.00  0.00     0.160 HD
BRANCH  40  42
ATOM     42  C   UNL     1      -2.036   8.880  12.065  1.00  0.00     0.124 C 
BRANCH  42  43
ATOM     43  C   UNL     1      -1.230   8.803  10.763  1.00  0.00     0.096 C 
BRANCH  43  44
ATOM     44  S   UNL     1       0.431   9.552  10.936  1.00  0.00    -0.124 SA
BRANCH  44  45
ATOM     45  C   UNL     1       0.029  11.273  10.698  1.00  0.00     0.007 A 
ATOM     46  C   UNL     1       0.072  11.815   9.410  1.00  0.00     0.015 A 
ATOM     47  C   UNL     1      -0.317  12.093  11.776  1.00  0.00     0.015 A 
ATOM     48  C   UNL     1      -0.252  13.157   9.199  1.00  0.00     0.001 A 
ATOM     49  C   UNL     1      -0.639  13.435  11.565  1.00  0.00     0.001 A 
ATOM     50  C   UNL     1      -0.611  13.965  10.275  1.00  0.00     0.000 A 
ENDBRANCH  44  45
ENDBRANCH  43  44
ENDBRANCH  42  43
ENDBRANCH  40  42
ENDBRANCH   4  40
TORSDOF 11
ENDMDL
MODEL 5
REMARK minimizedAffinity -6.9147315
REMARK CNNscore 0.200097084
REMARK CNNaffinity 6.08322287
REMARK SMILES C=C(c1ccc(C(=O)NS(=O)(=O)c2ccc(NCCSc3ccccc3)c([N+](=O)[O-])c2)cc1)c1cc2c(cc1C)C(C)(C)CCC2(C)C
REMARK SMILES IDX 13 1 14 2 15 3 16 4 27 5 31 6 10 7 11 8 12 9 9 10 7 11 8 12
REMARK SMILES IDX 6 14 3 15 4 16 33 17 5 18 32 19 2 20 1 21 34 22 35 23 39 24
REMARK SMILES IDX 36 25 38 26 37 27 46 28 41 29 45 30 44 31 40 32 47 33 48 34
REMARK SMILES IDX 42 35 43 36 28 37 29 38 30 39 17 40 18 42 19 43 20 44 21 45
REMARK SMILES IDX 22 46 26 47 23 48 25 49 24 50
REMARK H PARENT 9 13 17 41
ROOT
ATOM      1  C   UNL     1      -6.948   5.863  12.390  1.00  0.00     0.094 A 
ATOM      2  C   UNL     1      -6.321   6.923  13.038  1.00  0.00     0.025 A 
ATOM      3  C   UNL     1      -4.922   7.014  13.037  1.00  0.00     0.034 A 
ATOM      4  C   UNL     1      -4.112   6.075  12.374  1.00  0.00     0.113 A 
ATOM      5  C   UNL     1      -4.788   4.998  11.746  1.00  0.00     0.293 A 
ATOM      6  C   UNL     1      -6.191   4.885  11.748  1.00  0.00     0.110 A 
ENDROOT
BRANCH   1   7
ATOM      7  S   UNL     1      -8.713   5.707  12.441  1.00  0.00     0.264 S 
ATOM      8  O   UNL     1      -9.081   4.784  11.388  1.00  0.00    -0.201 OA
ATOM      9  O   UNL     1      -9.138   5.486  13.804  1.00  0.00    -0.201 OA
BRANCH   7  10
ATOM     10  N   UNL     1      -9.253   7.194  11.932  1.00  0.00    -0.245 N 
ATOM     11  C   UNL     1     -10.590   7.603  11.957  1.00  0.00     0.264 C 
ATOM     12  O   UNL     1     -11.480   6.933  12.452  1.00  0.00    -0.268 OA
ATOM     13  H   UNL     1      -8.512   7.739  11.510  1.00  0.00     0.183 HD
BRANCH  11  14
ATOM     14  C   UNL     1     -10.880   8.934  11.350  1.00  0.00     0.040 A 
ATOM     15  C   UNL     1     -11.271  11.476  10.176  1.00  0.00    -0.018 A 
ATOM     16  C   UNL     1     -10.145  10.705   9.854  1.00  0.00     0.009 A 
ATOM     17  C   UNL     1     -12.198  10.957  11.090  1.00  0.00     0.009 A 
ATOM     18  C   UNL     1      -9.953   9.445  10.432  1.00  0.00     0.014 A 
ATOM     19  C   UNL     1     -12.012   9.695  11.670  1.00  0.00     0.014 A 
BRANCH  15  20
ATOM     20  C   UNL     1     -11.468  12.837   9.620  1.00  0.00    -0.018 C 
ATOM     21  C   UNL     1     -11.508  13.890  10.457  1.00  0.00     0.018 C 
BRANCH  20  22
ATOM     22  C   UNL     1     -11.602  13.123   8.168  1.00  0.00    -0.015 A 
ATOM     23  C   UNL     1     -12.874  13.040   7.575  1.00  0.00     0.013 A 
ATOM     24  C   UNL     1     -10.508  13.494   7.377  1.00  0.00    -0.043 A 
ATOM     25  C   UNL     1     -13.098  13.325   6.209  1.00  0.00    -0.038 A 
ATOM     26  C   UNL     1     -10.728  13.815   6.028  1.00  0.00     0.008 A 
ATOM     27  C   UNL     1     -12.006  13.760   5.427  1.00  0.00    -0.038 A 
ATOM     28  C   UNL     1     -14.516  13.188   5.638  1.00  0.00    -0.010 C 
ATOM     29  C   UNL     1     -12.151  14.133   3.945  1.00  0.00    -0.010 C 
ATOM     30  C   UNL     1     -14.517  13.226   4.094  1.00  0.00     0.012 C 
ATOM     31  C   UNL     1     -13.630  14.335   3.551  1.00  0.00     0.012 C 
ATOM     32  C   UNL     1      -9.113  13.590   7.932  1.00  0.00     0.045 C 
ATOM     33  C   UNL     1     -15.389  14.337   6.190  1.00  0.00     0.016 C 
ATOM     34  C   UNL     1     -15.165  11.844   6.043  1.00  0.00     0.016 C 
ATOM     35  C   UNL     1     -11.426  15.459   3.611  1.00  0.00     0.016 C 
ATOM     36  C   UNL     1     -11.525  13.011   3.086  1.00  0.00     0.016 C 
ENDBRANCH  20  22
ENDBRANCH  15  20
ENDBRANCH  11  14
ENDBRANCH   7  10
ENDBRANCH   1   7
BRANCH   5  37
ATOM     37  N   UNL     1      -4.040   3.952  11.037  1.00  0.00     0.065 N 
ATOM     38  O   UNL     1      -3.371   3.153  11.713  1.00  0.00    -0.258 OA
ATOM     39  O   UNL     1      -4.092   3.952   9.799  1.00  0.00    -0.258 OA
ENDBRANCH   5  37
BRANCH   4  40
ATOM     40  N   UNL     1      -2.719   6.121  12.468  1.00  0.00    -0.379 N 
ATOM     41  H   UNL     1      -2.246   5.716  11.653  1.00  0.00     0.160 HD
BRANCH  40  42
ATOM     42  C   UNL     1      -1.976   7.252  13.032  1.00  0.00     0.124 C 
BRANCH  42  43
ATOM     43  C   UNL     1      -0.743   7.598  12.189  1.00  0.00     0.096 C 
BRANCH  43  44
ATOM     44  S   UNL     1      -1.171   7.909  10.438  1.00  0.00    -0.124 SA
BRANCH  44  45
ATOM     45  C   UNL     1      -0.581   9.583  10.261  1.00  0.00     0.007 A 
ATOM     46  C   UNL     1       0.360   9.878   9.269  1.00  0.00     0.015 A 
ATOM     47  C   UNL     1      -1.032  10.604  11.103  1.00  0.00     0.015 A 
ATOM     48  C   UNL     1       0.824  11.184   9.104  1.00  0.00     0.001 A 
ATOM     49  C   UNL     1      -0.564  11.910  10.939  1.00  0.00     0.001 A 
ATOM     50  C   UNL     1       0.360  12.200   9.936  1.00  0.00     0.000 A 
ENDBRANCH  44  45
ENDBRANCH  43  44
ENDBRANCH  42  43
ENDBRANCH  40  42
ENDBRANCH   4  40
TORSDOF 11
ENDMDL
MODEL 6
REMARK minimizedAffinity -6.84869814
REMARK CNNscore 0.171488345
REMARK CNNaffinity 5.69850683
REMARK SMILES C=C(c1ccc(C(=O)NS(=O)(=O)c2ccc(NCCSc3ccccc3)c([N+](=O)[O-])c2)cc1)c1cc2c(cc1C)C(C)(C)CCC2(C)C
REMARK SMILES IDX 13 1 14 2 15 3 16 4 27 5 31 6 10 7 11 8 12 9 9 10 7 11 8 12
REMARK SMILES IDX 6 14 3 15 4 16 33 17 5 18 32 19 2 20 1 21 34 22 35 23 39 24
REMARK SMILES IDX 36 25 38 26 37 27 46 28 41 29 45 30 44 31 40 32 47 33 48 34
REMARK SMILES IDX 42 35 43 36 28 37 29 38 30 39 17 40 18 42 19 43 20 44 21 45
REMARK SMILES IDX 22 46 26 47 23 48 25 49 24 50
REMARK H PARENT 9 13 17 41
ROOT
ATOM      1  C   UNL     1       8.666 -25.280   9.700  1.00  0.00     0.094 A 
ATOM      2  C   UNL     1       9.794 -24.614  10.172  1.00  0.00     0.025 A 
ATOM      3  C   UNL     1       9.649 -23.506  11.018  1.00  0.00     0.034 A 
ATOM      4  C   UNL     1       8.387 -23.046  11.438  1.00  0.00     0.113 A 
ATOM      5  C   UNL     1       7.263 -23.737  10.916  1.00  0.00     0.293 A 
ATOM      6  C   UNL     1       7.392 -24.843  10.056  1.00  0.00     0.110 A 
ENDROOT
BRANCH   1   7
ATOM      7  S   UNL     1       8.841 -26.642   8.579  1.00  0.00     0.264 S 
ATOM      8  O   UNL     1       9.343 -26.097   7.335  1.00  0.00    -0.201 OA
ATOM      9  O   UNL     1       9.524 -27.728   9.244  1.00  0.00    -0.201 OA
BRANCH   7  10
ATOM     10  N   UNL     1       7.273 -27.093   8.262  1.00  0.00    -0.245 N 
ATOM     11  C   UNL     1       6.906 -28.162   7.439  1.00  0.00     0.264 C 
ATOM     12  O   UNL     1       7.716 -28.933   6.952  1.00  0.00    -0.268 OA
ATOM     13  H   UNL     1       6.607 -26.442   8.658  1.00  0.00     0.183 HD
BRANCH  11  14
ATOM     14  C   UNL     1       5.445 -28.331   7.193  1.00  0.00     0.040 A 
ATOM     15  C   UNL     1       2.693 -28.808   6.759  1.00  0.00    -0.018 A 
ATOM     16  C   UNL     1       3.442 -29.651   7.592  1.00  0.00     0.009 A 
ATOM     17  C   UNL     1       3.339 -27.723   6.150  1.00  0.00     0.009 A 
ATOM     18  C   UNL     1       4.804 -29.413   7.810  1.00  0.00     0.014 A 
ATOM     19  C   UNL     1       4.701 -27.479   6.367  1.00  0.00     0.014 A 
BRANCH  15  20
ATOM     20  C   UNL     1       1.263 -29.072   6.466  1.00  0.00    -0.018 C 
ATOM     21  C   UNL     1       0.473 -29.568   7.437  1.00  0.00     0.018 C 
BRANCH  20  22
ATOM     22  C   UNL     1       0.627 -28.799   5.152  1.00  0.00    -0.015 A 
ATOM     23  C   UNL     1       1.064 -29.515   4.024  1.00  0.00     0.013 A 
ATOM     24  C   UNL     1      -0.410 -27.869   5.004  1.00  0.00    -0.043 A 
ATOM     25  C   UNL     1       0.494 -29.342   2.742  1.00  0.00    -0.038 A 
ATOM     26  C   UNL     1      -1.007 -27.718   3.743  1.00  0.00     0.008 A 
ATOM     27  C   UNL     1      -0.592 -28.450   2.608  1.00  0.00    -0.038 A 
ATOM     28  C   UNL     1       1.048 -30.149   1.561  1.00  0.00    -0.010 C 
ATOM     29  C   UNL     1      -1.307 -28.220   1.269  1.00  0.00    -0.010 C 
ATOM     30  C   UNL     1       0.533 -29.608   0.208  1.00  0.00     0.012 C 
ATOM     31  C   UNL     1      -0.957 -29.318   0.241  1.00  0.00     0.012 C 
ATOM     32  C   UNL     1      -0.924 -27.052   6.158  1.00  0.00     0.045 C 
ATOM     33  C   UNL     1       0.630 -31.627   1.727  1.00  0.00     0.016 C 
ATOM     34  C   UNL     1       2.592 -30.082   1.500  1.00  0.00     0.016 C 
ATOM     35  C   UNL     1      -2.847 -28.245   1.426  1.00  0.00     0.016 C 
ATOM     36  C   UNL     1      -0.900 -26.834   0.719  1.00  0.00     0.016 C 
ENDBRANCH  20  22
ENDBRANCH  15  20
ENDBRANCH  11  14
ENDBRANCH   7  10
ENDBRANCH   1   7
BRANCH   5  37
ATOM     37  N   UNL     1       5.899 -23.331  11.276  1.00  0.00     0.065 N 
ATOM     38  O   UNL     1       5.480 -22.245  10.845  1.00  0.00    -0.258 OA
ATOM     39  O   UNL     1       5.258 -24.085  12.022  1.00  0.00    -0.258 OA
ENDBRANCH   5  37
BRANCH   4  40
ATOM     40  N   UNL     1       8.254 -21.880  12.196  1.00  0.00    -0.379 N 
ATOM     41  H   UNL     1       7.276 -21.612  12.355  1.00  0.00     0.160 HD
BRANCH  40  42
ATOM     42  C   UNL     1       9.111 -21.546  13.337  1.00  0.00     0.124 C 
BRANCH  42  43
ATOM     43  C   UNL     1       8.484 -20.459  14.219  1.00  0.00     0.096 C 
BRANCH  43  44
ATOM     44  S   UNL     1       9.494 -18.933  14.254  1.00  0.00    -0.124 SA
BRANCH  44  45
ATOM     45  C   UNL     1       8.417 -17.864  15.191  1.00  0.00     0.007 A 
ATOM     46  C   UNL     1       8.974 -16.944  16.086  1.00  0.00     0.015 A 
ATOM     47  C   UNL     1       7.028 -17.935  15.056  1.00  0.00     0.015 A 
ATOM     48  C   UNL     1       8.150 -16.088  16.819  1.00  0.00     0.001 A 
ATOM     49  C   UNL     1       6.205 -17.080  15.792  1.00  0.00     0.001 A 
ATOM     50  C   UNL     1       6.767 -16.153  16.669  1.00  0.00     0.000 A 
ENDBRANCH  44  45
ENDBRANCH  43  44
ENDBRANCH  42  43
ENDBRANCH  40  42
ENDBRANCH   4  40
TORSDOF 11
ENDMDL
MODEL 7
REMARK minimizedAffinity -7.50956821
REMARK CNNscore 0.134479061
REMARK CNNaffinity 5.43274689
REMARK SMILES C=C(c1ccc(C(=O)NS(=O)(=O)c2ccc(NCCSc3ccccc3)c([N+](=O)[O-])c2)cc1)c1cc2c(cc1C)C(C)(C)CCC2(C)C
REMARK SMILES IDX 13 1 14 2 15 3 16 4 27 5 31 6 10 7 11 8 12 9 9 10 7 11 8 12
REMARK SMILES IDX 6 14 3 15 4 16 33 17 5 18 32 19 2 20 1 21 34 22 35 23 39 24
REMARK SMILES IDX 36 25 38 26 37 27 46 28 41 29 45 30 44 31 40 32 47 33 48 34
REMARK SMILES IDX 42 35 43 36 28 37 29 38 30 39 17 40 18 42 19 43 20 44 21 45
REMARK SMILES IDX 22 46 26 47 23 48 25 49 24 50
REMARK H PARENT 9 13 17 41
ROOT
ATOM      1  C   UNL     1      -3.303   0.385  -6.592  1.00  0.00     0.094 A 
ATOM      2  C   UNL     1      -3.434  -0.836  -5.937  1.00  0.00     0.025 A 
ATOM      3  C   UNL     1      -4.707  -1.388  -5.735  1.00  0.00     0.034 A 
ATOM      4  C   UNL     1      -5.877  -0.758  -6.197  1.00  0.00     0.113 A 
ATOM      5  C   UNL     1      -5.702   0.496  -6.837  1.00  0.00     0.293 A 
ATOM      6  C   UNL     1      -4.432   1.069  -7.038  1.00  0.00     0.110 A 
ENDROOT
BRANCH   1   7
ATOM      7  S   UNL     1      -1.701   1.118  -6.795  1.00  0.00     0.264 S 
ATOM      8  O   UNL     1      -1.041   1.042  -5.508  1.00  0.00    -0.201 OA
ATOM      9  O   UNL     1      -1.075   0.588  -7.983  1.00  0.00    -0.201 OA
BRANCH   7  10
ATOM     10  N   UNL     1      -2.034   2.731  -7.023  1.00  0.00    -0.245 N 
ATOM     11  C   UNL     1      -1.065   3.732  -7.133  1.00  0.00     0.264 C 
ATOM     12  O   UNL     1       0.131   3.498  -7.170  1.00  0.00    -0.268 OA
ATOM     13  H   UNL     1      -3.027   2.920  -6.978  1.00  0.00     0.183 HD
BRANCH  11  14
ATOM     14  C   UNL     1      -1.574   5.132  -7.222  1.00  0.00     0.040 A 
ATOM     15  C   UNL     1      -2.562   7.780  -7.228  1.00  0.00    -0.018 A 
ATOM     16  C   UNL     1      -1.974   7.239  -6.076  1.00  0.00     0.009 A 
ATOM     17  C   UNL     1      -2.646   6.979  -8.376  1.00  0.00     0.009 A 
ATOM     18  C   UNL     1      -1.482   5.929  -6.073  1.00  0.00     0.014 A 
ATOM     19  C   UNL     1      -2.152   5.668  -8.379  1.00  0.00     0.014 A 
BRANCH  15  20
ATOM     20  C   UNL     1      -3.143   9.145  -7.239  1.00  0.00    -0.018 C 
ATOM     21  C   UNL     1      -2.333  10.204  -7.427  1.00  0.00     0.018 C 
BRANCH  20  22
ATOM     22  C   UNL     1      -4.593   9.424  -7.075  1.00  0.00    -0.015 A 
ATOM     23  C   UNL     1      -5.271  10.117  -8.094  1.00  0.00     0.013 A 
ATOM     24  C   UNL     1      -5.312   9.000  -5.950  1.00  0.00    -0.043 A 
ATOM     25  C   UNL     1      -6.655  10.398  -8.035  1.00  0.00    -0.038 A 
ATOM     26  C   UNL     1      -6.694   9.241  -5.901  1.00  0.00     0.008 A 
ATOM     27  C   UNL     1      -7.389   9.914  -6.930  1.00  0.00    -0.038 A 
ATOM     28  C   UNL     1      -7.310  11.179  -9.181  1.00  0.00    -0.010 C 
ATOM     29  C   UNL     1      -8.903  10.130  -6.791  1.00  0.00    -0.010 C 
ATOM     30  C   UNL     1      -8.728  11.663  -8.806  1.00  0.00     0.012 C 
ATOM     31  C   UNL     1      -9.540  10.573  -8.126  1.00  0.00     0.012 C 
ATOM     32  C   UNL     1      -4.657   8.267  -4.810  1.00  0.00     0.045 C 
ATOM     33  C   UNL     1      -7.380  10.270 -10.428  1.00  0.00     0.016 C 
ATOM     34  C   UNL     1      -6.498  12.444  -9.545  1.00  0.00     0.016 C 
ATOM     35  C   UNL     1      -9.634   8.832  -6.370  1.00  0.00     0.016 C 
ATOM     36  C   UNL     1      -9.155  11.200  -5.705  1.00  0.00     0.016 C 
ENDBRANCH  20  22
ENDBRANCH  15  20
ENDBRANCH  11  14
ENDBRANCH   7  10
ENDBRANCH   1   7
BRANCH   5  37
ATOM     37  N   UNL     1      -6.856   1.247  -7.345  1.00  0.00     0.065 N 
ATOM     38  O   UNL     1      -7.986   0.754  -7.195  1.00  0.00    -0.258 OA
ATOM     39  O   UNL     1      -6.630   2.317  -7.929  1.00  0.00    -0.258 OA
ENDBRANCH   5  37
BRANCH   4  40
ATOM     40  N   UNL     1      -7.143  -1.267  -5.898  1.00  0.00    -0.379 N 
ATOM     41  H   UNL     1      -7.666  -1.562  -6.730  1.00  0.00     0.160 HD
BRANCH  40  42
ATOM     42  C   UNL     1      -7.429  -2.114  -4.737  1.00  0.00     0.124 C 
BRANCH  42  43
ATOM     43  C   UNL     1      -8.531  -3.137  -5.038  1.00  0.00     0.096 C 
BRANCH  43  44
ATOM     44  S   UNL     1      -8.290  -4.700  -4.117  1.00  0.00    -0.124 SA
BRANCH  44  45
ATOM     45  C   UNL     1      -9.129  -4.302  -2.594  1.00  0.00     0.007 A 
ATOM     46  C   UNL     1     -10.152  -3.348  -2.604  1.00  0.00     0.015 A 
ATOM     47  C   UNL     1      -8.775  -4.915  -1.389  1.00  0.00     0.015 A 
ATOM     48  C   UNL     1     -10.831  -3.032  -1.426  1.00  0.00     0.001 A 
ATOM     49  C   UNL     1      -9.453  -4.596  -0.211  1.00  0.00     0.001 A 
ATOM     50  C   UNL     1     -10.484  -3.658  -0.231  1.00  0.00     0.000 A 
ENDBRANCH  44  45
ENDBRANCH  43  44
ENDBRANCH  42  43
ENDBRANCH  40  42
ENDBRANCH   4  40
TORSDOF 11
ENDMDL
MODEL 8
REMARK minimizedAffinity -7.03442907
REMARK CNNscore 0.114955492
REMARK CNNaffinity 5.16994715
REMARK SMILES C=C(c1ccc(C(=O)NS(=O)(=O)c2ccc(NCCSc3ccccc3)c([N+](=O)[O-])c2)cc1)c1cc2c(cc1C)C(C)(C)CCC2(C)C
REMARK SMILES IDX 13 1 14 2 15 3 16 4 27 5 31 6 10 7 11 8 12 9 9 10 7 11 8 12
REMARK SMILES IDX 6 14 3 15 4 16 33 17 5 18 32 19 2 20 1 21 34 22 35 23 39 24
REMARK SMILES IDX 36 25 38 26 37 27 46 28 41 29 45 30 44 31 40 32 47 33 48 34
REMARK SMILES IDX 42 35 43 36 28 37 29 38 30 39 17 40 18 42 19 43 20 44 21 45
REMARK SMILES IDX 22 46 26 47 23 48 25 49 24 50
REMARK H PARENT 9 13 17 41
ROOT
ATOM      1  C   UNL     1     -12.037   1.852   8.772  1.00  0.00     0.094 A 
ATOM      2  C   UNL     1     -12.735   2.134   7.601  1.00  0.00     0.025 A 
ATOM      3  C   UNL     1     -12.220   1.722   6.364  1.00  0.00     0.034 A 
ATOM      4  C   UNL     1     -11.018   0.999   6.258  1.00  0.00     0.113 A 
ATOM      5  C   UNL     1     -10.327   0.752   7.472  1.00  0.00     0.293 A 
ATOM      6  C   UNL     1     -10.824   1.170   8.720  1.00  0.00     0.110 A 
ENDROOT
BRANCH   1   7
ATOM      7  S   UNL     1     -12.650   2.426  10.333  1.00  0.00     0.264 S 
ATOM      8  O   UNL     1     -13.554   3.521  10.049  1.00  0.00    -0.201 OA
ATOM      9  O   UNL     1     -13.077   1.298  11.128  1.00  0.00    -0.201 OA
BRANCH   7  10
ATOM     10  N   UNL     1     -11.320   3.125  11.044  1.00  0.00    -0.245 N 
ATOM     11  C   UNL     1     -10.651   4.246  10.542  1.00  0.00     0.264 C 
ATOM     12  O   UNL     1     -11.047   4.879   9.578  1.00  0.00    -0.268 OA
ATOM     13  H   UNL     1     -10.990   2.588  11.834  1.00  0.00     0.183 HD
BRANCH  11  14
ATOM     14  C   UNL     1      -9.411   4.649  11.267  1.00  0.00     0.040 A 
ATOM     15  C   UNL     1      -7.030   5.256  12.664  1.00  0.00    -0.018 A 
ATOM     16  C   UNL     1      -7.179   4.028  12.004  1.00  0.00     0.009 A 
ATOM     17  C   UNL     1      -8.087   6.176  12.612  1.00  0.00     0.009 A 
ATOM     18  C   UNL     1      -8.356   3.728  11.309  1.00  0.00     0.014 A 
ATOM     19  C   UNL     1      -9.266   5.881  11.916  1.00  0.00     0.014 A 
BRANCH  15  20
ATOM     20  C   UNL     1      -5.815   5.573  13.454  1.00  0.00    -0.018 C 
ATOM     21  C   UNL     1      -5.721   5.131  14.722  1.00  0.00     0.018 C 
BRANCH  20  22
ATOM     22  C   UNL     1      -4.663   6.343  12.920  1.00  0.00    -0.015 A 
ATOM     23  C   UNL     1      -3.698   5.673  12.148  1.00  0.00     0.013 A 
ATOM     24  C   UNL     1      -4.519   7.718  13.139  1.00  0.00    -0.043 A 
ATOM     25  C   UNL     1      -2.587   6.333  11.575  1.00  0.00    -0.038 A 
ATOM     26  C   UNL     1      -3.440   8.389  12.542  1.00  0.00     0.008 A 
ATOM     27  C   UNL     1      -2.477   7.730  11.745  1.00  0.00    -0.038 A 
ATOM     28  C   UNL     1      -1.569   5.519  10.765  1.00  0.00    -0.010 C 
ATOM     29  C   UNL     1      -1.332   8.547  11.129  1.00  0.00    -0.010 C 
ATOM     30  C   UNL     1      -0.280   6.327  10.491  1.00  0.00     0.012 C 
ATOM     31  C   UNL     1      -0.583   7.746  10.041  1.00  0.00     0.012 C 
ATOM     32  C   UNL     1      -5.500   8.505  13.966  1.00  0.00     0.045 C 
ATOM     33  C   UNL     1      -2.217   5.098   9.428  1.00  0.00     0.016 C 
ATOM     34  C   UNL     1      -1.132   4.241  11.519  1.00  0.00     0.016 C 
ATOM     35  C   UNL     1      -1.846   9.836  10.445  1.00  0.00     0.016 C 
ATOM     36  C   UNL     1      -0.352   8.954  12.253  1.00  0.00     0.016 C 
ENDBRANCH  20  22
ENDBRANCH  15  20
ENDBRANCH  11  14
ENDBRANCH   7  10
ENDBRANCH   1   7
BRANCH   5  37
ATOM     37  N   UNL     1      -9.055   0.019   7.476  1.00  0.00     0.065 N 
ATOM     38  O   UNL     1      -9.041  -1.123   7.963  1.00  0.00    -0.258 OA
ATOM     39  O   UNL     1      -8.059   0.601   7.023  1.00  0.00    -0.258 OA
ENDBRANCH   5  37
BRANCH   4  40
ATOM     40  N   UNL     1     -10.467   0.684   5.014  1.00  0.00    -0.379 N 
ATOM     41  H   UNL     1      -9.748  -0.046   5.064  1.00  0.00     0.160 HD
BRANCH  40  42
ATOM     42  C   UNL     1     -11.241   0.612   3.771  1.00  0.00     0.124 C 
BRANCH  42  43
ATOM     43  C   UNL     1     -11.067  -0.741   3.071  1.00  0.00     0.096 C 
BRANCH  43  44
ATOM     44  S   UNL     1      -9.305  -1.195   2.879  1.00  0.00    -0.124 SA
BRANCH  44  45
ATOM     45  C   UNL     1      -9.368  -2.053   1.317  1.00  0.00     0.007 A 
ATOM     46  C   UNL     1     -10.560  -2.059   0.586  1.00  0.00     0.015 A 
ATOM     47  C   UNL     1      -8.252  -2.730   0.815  1.00  0.00     0.015 A 
ATOM     48  C   UNL     1     -10.627  -2.713  -0.646  1.00  0.00     0.001 A 
ATOM     49  C   UNL     1      -8.321  -3.386  -0.416  1.00  0.00     0.001 A 
ATOM     50  C   UNL     1      -9.508  -3.373  -1.148  1.00  0.00     0.000 A 
ENDBRANCH  44  45
ENDBRANCH  43  44
ENDBRANCH  42  43
ENDBRANCH  40  42
ENDBRANCH   4  40
TORSDOF 11
ENDMDL
MODEL 9
REMARK minimizedAffinity -8.14692402
REMARK CNNscore 0.114320256
REMARK CNNaffinity 5.57356501
REMARK SMILES C=C(c1ccc(C(=O)NS(=O)(=O)c2ccc(NCCSc3ccccc3)c([N+](=O)[O-])c2)cc1)c1cc2c(cc1C)C(C)(C)CCC2(C)C
REMARK SMILES IDX 13 1 14 2 15 3 16 4 27 5 31 6 10 7 11 8 12 9 9 10 7 11 8 12
REMARK SMILES IDX 6 14 3 15 4 16 33 17 5 18 32 19 2 20 1 21 34 22 35 23 39 24
REMARK SMILES IDX 36 25 38 26 37 27 46 28 41 29 45 30 44 31 40 32 47 33 48 34
REMARK SMILES IDX 42 35 43 36 28 37 29 38 30 39 17 40 18 42 19 43 20 44 21 45
REMARK SMILES IDX 22 46 26 47 23 48 25 49 24 50
REMARK H PARENT 9 13 17 41
ROOT
ATOM      1  C   UNL     1      -3.144   0.376  -6.598  1.00  0.00     0.094 A 
ATOM      2  C   UNL     1      -3.221  -0.859  -5.959  1.00  0.00     0.025 A 
ATOM      3  C   UNL     1      -4.472  -1.436  -5.702  1.00  0.00     0.034 A 
ATOM      4  C   UNL     1      -5.675  -0.819  -6.093  1.00  0.00     0.113 A 
ATOM      5  C   UNL     1      -5.554   0.448  -6.719  1.00  0.00     0.293 A 
ATOM      6  C   UNL     1      -4.306   1.047  -6.973  1.00  0.00     0.110 A 
ENDROOT
BRANCH   1   7
ATOM      7  S   UNL     1      -1.568   1.141  -6.868  1.00  0.00     0.264 S 
ATOM      8  O   UNL     1      -0.840   1.049  -5.620  1.00  0.00    -0.201 OA
ATOM      9  O   UNL     1      -0.997   0.647  -8.099  1.00  0.00    -0.201 OA
BRANCH   7  10
ATOM     10  N   UNL     1      -1.939   2.752  -7.044  1.00  0.00    -0.245 N 
ATOM     11  C   UNL     1      -1.011   3.794  -6.953  1.00  0.00     0.264 C 
ATOM     12  O   UNL     1       0.188   3.606  -6.832  1.00  0.00    -0.268 OA
ATOM     13  H   UNL     1      -2.935   2.901  -7.130  1.00  0.00     0.183 HD
BRANCH  11  14
ATOM     14  C   UNL     1      -1.566   5.176  -7.028  1.00  0.00     0.040 A 
ATOM     15  C   UNL     1      -2.672   7.777  -7.019  1.00  0.00    -0.018 A 
ATOM     16  C   UNL     1      -2.295   7.156  -5.820  1.00  0.00     0.009 A 
ATOM     17  C   UNL     1      -2.485   7.080  -8.221  1.00  0.00     0.009 A 
ATOM     18  C   UNL     1      -1.744   5.870  -5.824  1.00  0.00     0.014 A 
ATOM     19  C   UNL     1      -1.932   5.794  -8.230  1.00  0.00     0.014 A 
BRANCH  15  20
ATOM     20  C   UNL     1      -3.311   9.116  -7.035  1.00  0.00    -0.018 C 
ATOM     21  C   UNL     1      -2.558  10.202  -7.291  1.00  0.00     0.018 C 
BRANCH  20  22
ATOM     22  C   UNL     1      -4.762   9.339  -6.805  1.00  0.00    -0.015 A 
ATOM     23  C   UNL     1      -5.325   8.936  -5.582  1.00  0.00     0.013 A 
ATOM     24  C   UNL     1      -5.581   9.959  -7.756  1.00  0.00    -0.043 A 
ATOM     25  C   UNL     1      -6.688   9.137  -5.267  1.00  0.00    -0.038 A 
ATOM     26  C   UNL     1      -6.927  10.197  -7.437  1.00  0.00     0.008 A 
ATOM     27  C   UNL     1      -7.498   9.819  -6.201  1.00  0.00    -0.038 A 
ATOM     28  C   UNL     1      -7.225   8.645  -3.917  1.00  0.00    -0.010 C 
ATOM     29  C   UNL     1      -8.980  10.124  -5.939  1.00  0.00    -0.010 C 
ATOM     30  C   UNL     1      -8.770   8.661  -3.875  1.00  0.00     0.012 C 
ATOM     31  C   UNL     1      -9.341   9.947  -4.448  1.00  0.00     0.012 C 
ATOM     32  C   UNL     1      -5.058  10.406  -9.095  1.00  0.00     0.045 C 
ATOM     33  C   UNL     1      -6.663   9.549  -2.796  1.00  0.00     0.016 C 
ATOM     34  C   UNL     1      -6.795   7.188  -3.629  1.00  0.00     0.016 C 
ATOM     35  C   UNL     1      -9.341  11.583  -6.304  1.00  0.00     0.016 C 
ATOM     36  C   UNL     1      -9.843   9.180  -6.806  1.00  0.00     0.016 C 
ENDBRANCH  20  22
ENDBRANCH  15  20
ENDBRANCH  11  14
ENDBRANCH   7  10
ENDBRANCH   1   7
BRANCH   5  37
ATOM     37  N   UNL     1      -6.746   1.187  -7.155  1.00  0.00     0.065 N 
ATOM     38  O   UNL     1      -6.876   2.361  -6.772  1.00  0.00    -0.258 OA
ATOM     39  O   UNL     1      -7.571   0.580  -7.852  1.00  0.00    -0.258 OA
ENDBRANCH   5  37
BRANCH   4  40
ATOM     40  N   UNL     1      -6.915  -1.356  -5.740  1.00  0.00    -0.379 N 
ATOM     41  H   UNL     1      -7.449  -1.703  -6.545  1.00  0.00     0.160 HD
BRANCH  40  42
ATOM     42  C   UNL     1      -7.144  -2.163  -4.537  1.00  0.00     0.124 C 
BRANCH  42  43
ATOM     43  C   UNL     1      -8.272  -3.180  -4.742  1.00  0.00     0.096 C 
BRANCH  43  44
ATOM     44  S   UNL     1      -8.020  -4.698  -3.751  1.00  0.00    -0.124 SA
BRANCH  44  45
ATOM     45  C   UNL     1      -9.013  -4.311  -2.321  1.00  0.00     0.007 A 
ATOM     46  C   UNL     1     -10.040  -3.368  -2.435  1.00  0.00     0.015 A 
ATOM     47  C   UNL     1      -8.777  -4.923  -1.086  1.00  0.00     0.015 A 
ATOM     48  C   UNL     1     -10.838  -3.060  -1.332  1.00  0.00     0.001 A 
ATOM     49  C   UNL     1      -9.575  -4.612   0.017  1.00  0.00     0.001 A 
ATOM     50  C   UNL     1     -10.609  -3.685  -0.108  1.00  0.00     0.000 A 
ENDBRANCH  44  45
ENDBRANCH  43  44
ENDBRANCH  42  43
ENDBRANCH  40  42
ENDBRANCH   4  40
TORSDOF 11
ENDMDL
