MODEL 1
REMARK minimizedAffinity -7.86303282
REMARK CNNscore 0.506887972
REMARK CNNaffinity 6.38324785
REMARK SMILES CC(=O)N[C@@H](Cc1c[nH]c2ccccc12)C(=O)Nc1ccc(C(=O)NS(=O)(=O)c2ccc(NCCSc3ccccc3)c([N+](=O)[O-])c2)cc1
REMARK SMILES IDX 23 1 24 2 25 3 22 5 19 6 20 7 49 8 21 9 48 10 18 11 16 12
REMARK SMILES IDX 17 13 5 15 4 16 2 17 3 18 1 19 6 21 7 22 8 23 15 24 9 25
REMARK SMILES IDX 14 26 10 27 13 28 11 29 12 30 26 32 27 33 28 34 29 35 30 36
REMARK SMILES IDX 47 37 31 38 43 39 32 40 44 41 45 42 46 43 33 44 34 46 35 47
REMARK SMILES IDX 36 48 37 49 38 50 42 51 39 52 41 53 40 54
REMARK H PARENT 25 4 18 14 4 20 9 31 33 45
ROOT
ATOM      1  C   UNL     1      -0.386   9.270   9.883  1.00  0.00     0.264 C 
ATOM      2  O   UNL     1       0.630   8.809   9.388  1.00  0.00    -0.268 OA
ATOM      3  N   UNL     1      -0.694  10.639   9.902  1.00  0.00    -0.245 N 
ATOM      4  H   UNL     1      -1.467  10.989  10.454  1.00  0.00     0.183 HD
ENDROOT
BRANCH   1   5
ATOM      5  C   UNL     1      -1.397   8.378  10.513  1.00  0.00     0.040 A 
ATOM      6  C   UNL     1      -3.244   6.602  11.686  1.00  0.00     0.041 A 
ATOM      7  C   UNL     1      -3.475   7.980  11.704  1.00  0.00     0.027 A 
ATOM      8  C   UNL     1      -2.079   6.119  11.077  1.00  0.00     0.027 A 
ATOM      9  C   UNL     1      -2.557   8.867  11.123  1.00  0.00     0.016 A 
ATOM     10  C   UNL     1      -1.164   6.999  10.488  1.00  0.00     0.016 A 
BRANCH   6  11
ATOM     11  N   UNL     1      -4.123   5.646  12.236  1.00  0.00    -0.324 N 
ATOM     12  C   UNL     1      -4.649   4.520  11.618  1.00  0.00     0.247 C 
ATOM     13  O   UNL     1      -4.423   4.152  10.466  1.00  0.00    -0.272 OA
ATOM     14  H   UNL     1      -4.432   5.827  13.184  1.00  0.00     0.170 HD
BRANCH  12  15
ATOM     15  C   UNL     1      -5.513   3.665  12.569  1.00  0.00     0.176 C 
BRANCH  15  16
ATOM     16  N   UNL     1      -5.221   4.066  13.944  1.00  0.00    -0.344 N 
ATOM     17  C   UNL     1      -4.897   3.118  14.887  1.00  0.00     0.217 C 
ATOM     18  O   UNL     1      -4.944   1.911  14.678  1.00  0.00    -0.275 OA
ATOM     19  C   UNL     1      -4.508   3.695  16.221  1.00  0.00     0.114 C 
ATOM     20  H   UNL     1      -4.838   4.993  14.072  1.00  0.00     0.164 HD
ENDBRANCH  15  16
BRANCH  15  21
ATOM     21  C   UNL     1      -6.987   3.880  12.196  1.00  0.00     0.072 C 
BRANCH  21  22
ATOM     22  C   UNL     1      -7.523   2.816  11.287  1.00  0.00    -0.020 A 
ATOM     23  C   UNL     1      -7.731   1.489  11.610  1.00  0.00     0.087 A 
ATOM     24  C   UNL     1      -7.923   2.977   9.920  1.00  0.00     0.003 A 
ATOM     25  N   UNL     1      -8.254   0.855  10.514  1.00  0.00    -0.361 N 
ATOM     26  C   UNL     1      -7.946   4.067   9.025  1.00  0.00     0.010 A 
ATOM     27  C   UNL     1      -8.377   1.738   9.468  1.00  0.00     0.046 A 
ATOM     28  C   UNL     1      -8.416   3.881   7.721  1.00  0.00     0.001 A 
ATOM     29  C   UNL     1      -8.855   1.534   8.169  1.00  0.00     0.026 A 
ATOM     30  C   UNL     1      -8.866   2.631   7.302  1.00  0.00     0.002 A 
ATOM     31  H   UNL     1      -8.513  -0.122  10.472  1.00  0.00     0.166 HD
ENDBRANCH  21  22
ENDBRANCH  15  21
ENDBRANCH  12  15
ENDBRANCH   6  11
ENDBRANCH   1   5
BRANCH   3  32
ATOM     32  S   UNL     1       0.367  11.784   9.308  1.00  0.00     0.264 S 
ATOM     33  O   UNL     1       1.300  11.152   8.402  1.00  0.00    -0.201 OA
ATOM     34  O   UNL     1      -0.373  12.979   8.968  1.00  0.00    -0.201 OA
BRANCH  32  35
ATOM     35  C   UNL     1       1.297  12.161  10.782  1.00  0.00     0.094 A 
ATOM     36  C   UNL     1       1.807  11.135  11.571  1.00  0.00     0.025 A 
ATOM     37  C   UNL     1       1.481  13.492  11.151  1.00  0.00     0.110 A 
ATOM     38  C   UNL     1       2.512  11.442  12.743  1.00  0.00     0.034 A 
ATOM     39  C   UNL     1       2.197  13.783  12.327  1.00  0.00     0.293 A 
ATOM     40  C   UNL     1       2.702  12.768  13.177  1.00  0.00     0.113 A 
BRANCH  39  41
ATOM     41  N   UNL     1       2.406  15.199  12.637  1.00  0.00     0.065 N 
ATOM     42  O   UNL     1       1.411  15.850  12.988  1.00  0.00    -0.258 OA
ATOM     43  O   UNL     1       3.553  15.657  12.540  1.00  0.00    -0.258 OA
ENDBRANCH  39  41
BRANCH  40  44
ATOM     44  N   UNL     1       3.488  13.055  14.305  1.00  0.00    -0.379 N 
ATOM     45  H   UNL     1       3.241  13.970  14.711  1.00  0.00     0.160 HD
BRANCH  44  46
ATOM     46  C   UNL     1       3.658  12.077  15.391  1.00  0.00     0.124 C 
BRANCH  46  47
ATOM     47  C   UNL     1       2.949  12.500  16.684  1.00  0.00     0.096 C 
BRANCH  47  48
ATOM     48  S   UNL     1       4.066  12.323  18.124  1.00  0.00    -0.124 SA
BRANCH  48  49
ATOM     49  C   UNL     1       4.200  10.548  18.239  1.00  0.00     0.007 A 
ATOM     50  C   UNL     1       3.043   9.816  18.536  1.00  0.00     0.015 A 
ATOM     51  C   UNL     1       5.413   9.868  18.082  1.00  0.00     0.015 A 
ATOM     52  C   UNL     1       3.094   8.426  18.655  1.00  0.00     0.001 A 
ATOM     53  C   UNL     1       5.463   8.477  18.198  1.00  0.00     0.001 A 
ATOM     54  C   UNL     1       4.304   7.756  18.483  1.00  0.00     0.000 A 
ENDBRANCH  48  49
ENDBRANCH  47  48
ENDBRANCH  46  47
ENDBRANCH  44  46
ENDBRANCH  40  44
ENDBRANCH  32  35
ENDBRANCH   3  32
TORSDOF 14
ENDMDL
MODEL 2
REMARK minimizedAffinity -7.70900297
REMARK CNNscore 0.385127425
REMARK CNNaffinity 6.33236122
REMARK SMILES CC(=O)N[C@@H](Cc1c[nH]c2ccccc12)C(=O)Nc1ccc(C(=O)NS(=O)(=O)c2ccc(NCCSc3ccccc3)c([N+](=O)[O-])c2)cc1
REMARK SMILES IDX 23 1 24 2 25 3 22 5 19 6 20 7 49 8 21 9 48 10 18 11 16 12
REMARK SMILES IDX 17 13 5 15 4 16 2 17 3 18 1 19 6 21 7 22 8 23 15 24 9 25
REMARK SMILES IDX 14 26 10 27 13 28 11 29 12 30 26 32 27 33 28 34 29 35 30 36
REMARK SMILES IDX 47 37 31 38 43 39 32 40 44 41 45 42 46 43 33 44 34 46 35 47
REMARK SMILES IDX 36 48 37 49 38 50 42 51 39 52 41 53 40 54
REMARK H PARENT 25 4 18 14 4 20 9 31 33 45
ROOT
ATOM      1  C   UNL     1      -0.213   9.066  10.015  1.00  0.00     0.264 C 
ATOM      2  O   UNL     1       0.764   8.680   9.393  1.00  0.00    -0.268 OA
ATOM      3  N   UNL     1      -0.578  10.415  10.137  1.00  0.00    -0.245 N 
ATOM      4  H   UNL     1      -1.302  10.700  10.784  1.00  0.00     0.183 HD
ENDROOT
BRANCH   1   5
ATOM      5  C   UNL     1      -1.108   8.096  10.701  1.00  0.00     0.040 A 
ATOM      6  C   UNL     1      -2.771   6.299  12.097  1.00  0.00     0.041 A 
ATOM      7  C   UNL     1      -2.797   6.350  10.701  1.00  0.00     0.027 A 
ATOM      8  C   UNL     1      -1.906   7.156  12.790  1.00  0.00     0.027 A 
ATOM      9  C   UNL     1      -1.972   7.245  10.002  1.00  0.00     0.016 A 
ATOM     10  C   UNL     1      -1.075   8.043  12.098  1.00  0.00     0.016 A 
BRANCH   6  11
ATOM     11  N   UNL     1      -3.558   5.420  12.869  1.00  0.00    -0.324 N 
ATOM     12  C   UNL     1      -4.219   5.693  14.059  1.00  0.00     0.247 C 
ATOM     13  O   UNL     1      -4.237   6.774  14.647  1.00  0.00    -0.272 OA
ATOM     14  H   UNL     1      -3.618   4.468  12.528  1.00  0.00     0.170 HD
BRANCH  12  15
ATOM     15  C   UNL     1      -5.051   4.498  14.569  1.00  0.00     0.176 C 
BRANCH  15  16
ATOM     16  N   UNL     1      -4.495   4.059  15.847  1.00  0.00    -0.344 N 
ATOM     17  C   UNL     1      -4.282   2.720  16.086  1.00  0.00     0.217 C 
ATOM     18  O   UNL     1      -4.640   1.832  15.322  1.00  0.00    -0.275 OA
ATOM     19  C   UNL     1      -3.596   2.437  17.395  1.00  0.00     0.114 C 
ATOM     20  H   UNL     1      -3.890   4.714  16.325  1.00  0.00     0.164 HD
ENDBRANCH  15  16
BRANCH  15  21
ATOM     21  C   UNL     1      -6.512   4.955  14.692  1.00  0.00     0.072 C 
BRANCH  21  22
ATOM     22  C   UNL     1      -7.125   5.324  13.374  1.00  0.00    -0.020 A 
ATOM     23  C   UNL     1      -7.486   6.594  12.965  1.00  0.00     0.087 A 
ATOM     24  C   UNL     1      -7.443   4.435  12.297  1.00  0.00     0.003 A 
ATOM     25  N   UNL     1      -7.984   6.510  11.692  1.00  0.00    -0.361 N 
ATOM     26  C   UNL     1      -7.323   3.042  12.104  1.00  0.00     0.010 A 
ATOM     27  C   UNL     1      -7.973   5.204  11.262  1.00  0.00     0.046 A 
ATOM     28  C   UNL     1      -7.736   2.475  10.895  1.00  0.00     0.001 A 
ATOM     29  C   UNL     1      -8.387   4.654  10.043  1.00  0.00     0.026 A 
ATOM     30  C   UNL     1      -8.259   3.272   9.879  1.00  0.00     0.002 A 
ATOM     31  H   UNL     1      -8.315   7.291  11.141  1.00  0.00     0.166 HD
ENDBRANCH  21  22
ENDBRANCH  15  21
ENDBRANCH  12  15
ENDBRANCH   6  11
ENDBRANCH   1   5
BRANCH   3  32
ATOM     32  S   UNL     1       0.360  11.639   9.494  1.00  0.00     0.264 S 
ATOM     33  O   UNL     1       1.162  11.113   8.412  1.00  0.00    -0.201 OA
ATOM     34  O   UNL     1      -0.446  12.833   9.367  1.00  0.00    -0.201 OA
BRANCH  32  35
ATOM     35  C   UNL     1       1.490  11.926  10.844  1.00  0.00     0.094 A 
ATOM     36  C   UNL     1       1.726  10.929  11.785  1.00  0.00     0.025 A 
ATOM     37  C   UNL     1       2.109  13.168  10.963  1.00  0.00     0.110 A 
ATOM     38  C   UNL     1       2.593  11.175  12.858  1.00  0.00     0.034 A 
ATOM     39  C   UNL     1       2.982  13.396  12.042  1.00  0.00     0.293 A 
ATOM     40  C   UNL     1       3.222  12.421  13.042  1.00  0.00     0.113 A 
BRANCH  39  41
ATOM     41  N   UNL     1       3.646  14.701  12.087  1.00  0.00     0.065 N 
ATOM     42  O   UNL     1       2.932  15.687  12.327  1.00  0.00    -0.258 OA
ATOM     43  O   UNL     1       4.869  14.744  11.893  1.00  0.00    -0.258 OA
ENDBRANCH  39  41
BRANCH  40  44
ATOM     44  N   UNL     1       4.157  12.616  14.072  1.00  0.00    -0.379 N 
ATOM     45  H   UNL     1       4.632  13.526  13.980  1.00  0.00     0.160 HD
BRANCH  44  46
ATOM     46  C   UNL     1       3.798  12.401  15.483  1.00  0.00     0.124 C 
BRANCH  46  47
ATOM     47  C   UNL     1       4.991  12.585  16.430  1.00  0.00     0.096 C 
BRANCH  47  48
ATOM     48  S   UNL     1       4.480  12.341  18.172  1.00  0.00    -0.124 SA
BRANCH  48  49
ATOM     49  C   UNL     1       4.422  10.561  18.267  1.00  0.00     0.007 A 
ATOM     50  C   UNL     1       3.192   9.954  18.550  1.00  0.00     0.015 A 
ATOM     51  C   UNL     1       5.557   9.757  18.109  1.00  0.00     0.015 A 
ATOM     52  C   UNL     1       3.093   8.565  18.654  1.00  0.00     0.001 A 
ATOM     53  C   UNL     1       5.457   8.367  18.209  1.00  0.00     0.001 A 
ATOM     54  C   UNL     1       4.226   7.771  18.480  1.00  0.00     0.000 A 
ENDBRANCH  48  49
ENDBRANCH  47  48
ENDBRANCH  46  47
ENDBRANCH  44  46
ENDBRANCH  40  44
ENDBRANCH  32  35
ENDBRANCH   3  32
TORSDOF 14
ENDMDL
MODEL 3
REMARK minimizedAffinity -8.12953281
REMARK CNNscore 0.280511886
REMARK CNNaffinity 6.25178862
REMARK SMILES CC(=O)N[C@@H](Cc1c[nH]c2ccccc12)C(=O)Nc1ccc(C(=O)NS(=O)(=O)c2ccc(NCCSc3ccccc3)c([N+](=O)[O-])c2)cc1
REMARK SMILES IDX 23 1 24 2 25 3 22 5 19 6 20 7 49 8 21 9 48 10 18 11 16 12
REMARK SMILES IDX 17 13 5 15 4 16 2 17 3 18 1 19 6 21 7 22 8 23 15 24 9 25
REMARK SMILES IDX 14 26 10 27 13 28 11 29 12 30 26 32 27 33 28 34 29 35 30 36
REMARK SMILES IDX 47 37 31 38 43 39 32 40 44 41 45 42 46 43 33 44 34 46 35 47
REMARK SMILES IDX 36 48 37 49 38 50 42 51 39 52 41 53 40 54
REMARK H PARENT 25 4 18 14 4 20 9 31 33 45
ROOT
ATOM      1  C   UNL     1      -1.638   5.626  10.194  1.00  0.00     0.264 C 
ATOM      2  O   UNL     1      -0.972   4.680   9.804  1.00  0.00    -0.268 OA
ATOM      3  N   UNL     1      -2.995   5.536  10.542  1.00  0.00    -0.245 N 
ATOM      4  H   UNL     1      -3.543   6.369  10.712  1.00  0.00     0.183 HD
ENDROOT
BRANCH   1   5
ATOM      5  C   UNL     1      -1.031   6.977  10.331  1.00  0.00     0.040 A 
ATOM      6  C   UNL     1       0.020   9.581  10.588  1.00  0.00     0.041 A 
ATOM      7  C   UNL     1       0.858   8.465  10.671  1.00  0.00     0.027 A 
ATOM      8  C   UNL     1      -1.351   9.382  10.375  1.00  0.00     0.027 A 
ATOM      9  C   UNL     1       0.339   7.169  10.546  1.00  0.00     0.016 A 
ATOM     10  C   UNL     1      -1.872   8.091  10.241  1.00  0.00     0.016 A 
BRANCH   6  11
ATOM     11  N   UNL     1       0.466  10.914  10.690  1.00  0.00    -0.324 N 
ATOM     12  C   UNL     1       1.148  11.658   9.736  1.00  0.00     0.247 C 
ATOM     13  O   UNL     1       1.474  11.273   8.614  1.00  0.00    -0.272 OA
ATOM     14  H   UNL     1       0.297  11.367  11.580  1.00  0.00     0.170 HD
BRANCH  12  15
ATOM     15  C   UNL     1       1.396  13.115  10.179  1.00  0.00     0.176 C 
BRANCH  15  16
ATOM     16  N   UNL     1       0.424  13.974   9.506  1.00  0.00    -0.344 N 
ATOM     17  C   UNL     1       0.766  15.258   9.149  1.00  0.00     0.217 C 
ATOM     18  O   UNL     1       1.825  15.788   9.463  1.00  0.00    -0.275 OA
ATOM     19  C   UNL     1      -0.297  15.974   8.361  1.00  0.00     0.114 C 
ATOM     20  H   UNL     1      -0.275  13.509   8.941  1.00  0.00     0.164 HD
ENDBRANCH  15  16
BRANCH  15  21
ATOM     21  C   UNL     1       1.271  13.174  11.709  1.00  0.00     0.072 C 
BRANCH  21  22
ATOM     22  C   UNL     1       2.575  12.947  12.413  1.00  0.00    -0.020 A 
ATOM     23  C   UNL     1       2.978  11.781  13.036  1.00  0.00     0.087 A 
ATOM     24  C   UNL     1       3.643  13.890  12.567  1.00  0.00     0.003 A 
ATOM     25  N   UNL     1       4.239  11.973  13.535  1.00  0.00    -0.361 N 
ATOM     26  C   UNL     1       3.835  15.230  12.169  1.00  0.00     0.010 A 
ATOM     27  C   UNL     1       4.667  13.252  13.267  1.00  0.00     0.046 A 
ATOM     28  C   UNL     1       5.033  15.878  12.484  1.00  0.00     0.001 A 
ATOM     29  C   UNL     1       5.874  13.884  13.586  1.00  0.00     0.026 A 
ATOM     30  C   UNL     1       6.038  15.211  13.182  1.00  0.00     0.002 A 
ATOM     31  H   UNL     1       4.783  11.280  14.031  1.00  0.00     0.166 HD
ENDBRANCH  21  22
ENDBRANCH  15  21
ENDBRANCH  12  15
ENDBRANCH   6  11
ENDBRANCH   1   5
BRANCH   3  32
ATOM     32  S   UNL     1      -3.850   4.111  10.372  1.00  0.00     0.264 S 
ATOM     33  O   UNL     1      -4.144   3.890   8.974  1.00  0.00    -0.201 OA
ATOM     34  O   UNL     1      -3.257   3.101  11.220  1.00  0.00    -0.201 OA
BRANCH  32  35
ATOM     35  C   UNL     1      -5.398   4.570  11.130  1.00  0.00     0.094 A 
ATOM     36  C   UNL     1      -6.593   4.025  10.671  1.00  0.00     0.025 A 
ATOM     37  C   UNL     1      -5.401   5.503  12.165  1.00  0.00     0.110 A 
ATOM     38  C   UNL     1      -7.806   4.415  11.253  1.00  0.00     0.034 A 
ATOM     39  C   UNL     1      -6.628   5.878  12.743  1.00  0.00     0.293 A 
ATOM     40  C   UNL     1      -7.869   5.374  12.282  1.00  0.00     0.113 A 
BRANCH  39  41
ATOM     41  N   UNL     1      -6.567   6.821  13.862  1.00  0.00     0.065 N 
ATOM     42  O   UNL     1      -7.034   6.440  14.946  1.00  0.00    -0.258 OA
ATOM     43  O   UNL     1      -6.052   7.931  13.666  1.00  0.00    -0.258 OA
ENDBRANCH  39  41
BRANCH  40  44
ATOM     44  N   UNL     1      -9.086   5.681  12.912  1.00  0.00    -0.379 N 
ATOM     45  H   UNL     1      -9.236   6.700  12.961  1.00  0.00     0.160 HD
BRANCH  44  46
ATOM     46  C   UNL     1     -10.343   5.029  12.513  1.00  0.00     0.124 C 
BRANCH  46  47
ATOM     47  C   UNL     1     -11.266   5.961  11.718  1.00  0.00     0.096 C 
BRANCH  47  48
ATOM     48  S   UNL     1     -10.611   7.672  11.713  1.00  0.00    -0.124 SA
BRANCH  48  49
ATOM     49  C   UNL     1     -10.237   7.890   9.982  1.00  0.00     0.007 A 
ATOM     50  C   UNL     1      -9.614   6.836   9.302  1.00  0.00     0.015 A 
ATOM     51  C   UNL     1     -10.505   9.079   9.294  1.00  0.00     0.015 A 
ATOM     52  C   UNL     1      -9.281   6.960   7.952  1.00  0.00     0.001 A 
ATOM     53  C   UNL     1     -10.176   9.201   7.941  1.00  0.00     0.001 A 
ATOM     54  C   UNL     1      -9.566   8.142   7.270  1.00  0.00     0.000 A 
ENDBRANCH  48  49
ENDBRANCH  47  48
ENDBRANCH  46  47
ENDBRANCH  44  46
ENDBRANCH  40  44
ENDBRANCH  32  35
ENDBRANCH   3  32
TORSDOF 14
ENDMDL
MODEL 4
REMARK minimizedAffinity -8.35262394
REMARK CNNscore 0.274012953
REMARK CNNaffinity 5.82522345
REMARK SMILES CC(=O)N[C@@H](Cc1c[nH]c2ccccc12)C(=O)Nc1ccc(C(=O)NS(=O)(=O)c2ccc(NCCSc3ccccc3)c([N+](=O)[O-])c2)cc1
REMARK SMILES IDX 23 1 24 2 25 3 22 5 19 6 20 7 49 8 21 9 48 10 18 11 16 12
REMARK SMILES IDX 17 13 5 15 4 16 2 17 3 18 1 19 6 21 7 22 8 23 15 24 9 25
REMARK SMILES IDX 14 26 10 27 13 28 11 29 12 30 26 32 27 33 28 34 29 35 30 36
REMARK SMILES IDX 47 37 31 38 43 39 32 40 44 41 45 42 46 43 33 44 34 46 35 47
REMARK SMILES IDX 36 48 37 49 38 50 42 51 39 52 41 53 40 54
REMARK H PARENT 25 4 18 14 4 20 9 31 33 45
ROOT
ATOM      1  C   UNL     1      -8.976   1.433   7.626  1.00  0.00     0.264 C 
ATOM      2  O   UNL     1      -9.561   1.164   8.663  1.00  0.00    -0.268 OA
ATOM      3  N   UNL     1      -7.826   2.235   7.564  1.00  0.00    -0.245 N 
ATOM      4  H   UNL     1      -7.465   2.556   6.674  1.00  0.00     0.183 HD
ENDROOT
BRANCH   1   5
ATOM      5  C   UNL     1      -9.460   0.905   6.322  1.00  0.00     0.040 A 
ATOM      6  C   UNL     1     -10.273  -0.124   3.827  1.00  0.00     0.041 A 
ATOM      7  C   UNL     1     -11.218   0.346   4.743  1.00  0.00     0.027 A 
ATOM      8  C   UNL     1      -8.916  -0.075   4.170  1.00  0.00     0.027 A 
ATOM      9  C   UNL     1     -10.818   0.856   5.986  1.00  0.00     0.016 A 
ATOM     10  C   UNL     1      -8.510   0.442   5.405  1.00  0.00     0.016 A 
BRANCH   6  11
ATOM     11  N   UNL     1     -10.595  -0.638   2.554  1.00  0.00    -0.324 N 
ATOM     12  C   UNL     1     -10.008  -1.712   1.898  1.00  0.00     0.247 C 
ATOM     13  O   UNL     1      -9.097  -2.416   2.330  1.00  0.00    -0.272 OA
ATOM     14  H   UNL     1     -11.318  -0.140   2.049  1.00  0.00     0.170 HD
BRANCH  12  15
ATOM     15  C   UNL     1     -10.687  -2.031   0.549  1.00  0.00     0.176 C 
BRANCH  15  16
ATOM     16  N   UNL     1     -11.794  -1.097   0.357  1.00  0.00    -0.344 N 
ATOM     17  C   UNL     1     -13.093  -1.515   0.540  1.00  0.00     0.217 C 
ATOM     18  O   UNL     1     -13.404  -2.681   0.751  1.00  0.00    -0.275 OA
ATOM     19  C   UNL     1     -14.110  -0.413   0.422  1.00  0.00     0.114 C 
ATOM     20  H   UNL     1     -11.596  -0.120   0.530  1.00  0.00     0.164 HD
ENDBRANCH  15  16
BRANCH  15  21
ATOM     21  C   UNL     1      -9.626  -1.919  -0.556  1.00  0.00     0.072 C 
BRANCH  21  22
ATOM     22  C   UNL     1      -9.887  -2.833  -1.715  1.00  0.00    -0.020 A 
ATOM     23  C   UNL     1     -11.024  -2.857  -2.501  1.00  0.00     0.087 A 
ATOM     24  C   UNL     1      -9.009  -3.845  -2.224  1.00  0.00     0.003 A 
ATOM     25  N   UNL     1     -10.860  -3.816  -3.465  1.00  0.00    -0.361 N 
ATOM     26  C   UNL     1      -7.728  -4.308  -1.858  1.00  0.00     0.010 A 
ATOM     27  C   UNL     1      -9.642  -4.436  -3.317  1.00  0.00     0.046 A 
ATOM     28  C   UNL     1      -7.132  -5.339  -2.591  1.00  0.00     0.001 A 
ATOM     29  C   UNL     1      -9.059  -5.465  -4.064  1.00  0.00     0.026 A 
ATOM     30  C   UNL     1      -7.790  -5.907  -3.679  1.00  0.00     0.002 A 
ATOM     31  H   UNL     1     -11.533  -4.041  -4.185  1.00  0.00     0.166 HD
ENDBRANCH  21  22
ENDBRANCH  15  21
ENDBRANCH  12  15
ENDBRANCH   6  11
ENDBRANCH   1   5
BRANCH   3  32
ATOM     32  S   UNL     1      -7.195   2.971   8.924  1.00  0.00     0.264 S 
ATOM     33  O   UNL     1      -7.570   2.215  10.097  1.00  0.00    -0.201 OA
ATOM     34  O   UNL     1      -5.835   3.378   8.652  1.00  0.00    -0.201 OA
BRANCH  32  35
ATOM     35  C   UNL     1      -8.175   4.461   8.970  1.00  0.00     0.094 A 
ATOM     36  C   UNL     1      -8.634   5.036   7.790  1.00  0.00     0.025 A 
ATOM     37  C   UNL     1      -8.450   5.058  10.199  1.00  0.00     0.110 A 
ATOM     38  C   UNL     1      -9.377   6.223   7.837  1.00  0.00     0.034 A 
ATOM     39  C   UNL     1      -9.204   6.245  10.228  1.00  0.00     0.293 A 
ATOM     40  C   UNL     1      -9.659   6.883   9.048  1.00  0.00     0.113 A 
BRANCH  39  41
ATOM     41  N   UNL     1      -9.507   6.800  11.550  1.00  0.00     0.065 N 
ATOM     42  O   UNL     1      -8.543   7.109  12.265  1.00  0.00    -0.258 OA
ATOM     43  O   UNL     1     -10.697   6.933  11.870  1.00  0.00    -0.258 OA
ENDBRANCH  39  41
BRANCH  40  44
ATOM     44  N   UNL     1     -10.482   8.021   9.079  1.00  0.00    -0.379 N 
ATOM     45  H   UNL     1     -11.212   7.936   9.802  1.00  0.00     0.160 HD
BRANCH  44  46
ATOM     46  C   UNL     1      -9.915   9.378   9.125  1.00  0.00     0.124 C 
BRANCH  46  47
ATOM     47  C   UNL     1      -9.528   9.904   7.736  1.00  0.00     0.096 C 
BRANCH  47  48
ATOM     48  S   UNL     1     -10.853   9.559   6.520  1.00  0.00    -0.124 SA
BRANCH  48  49
ATOM     49  C   UNL     1      -9.903   9.369   5.022  1.00  0.00     0.007 A 
ATOM     50  C   UNL     1     -10.286  10.112   3.898  1.00  0.00     0.015 A 
ATOM     51  C   UNL     1      -8.824   8.485   4.917  1.00  0.00     0.015 A 
ATOM     52  C   UNL     1      -9.590   9.990   2.694  1.00  0.00     0.001 A 
ATOM     53  C   UNL     1      -8.124   8.365   3.714  1.00  0.00     0.001 A 
ATOM     54  C   UNL     1      -8.506   9.118   2.603  1.00  0.00     0.000 A 
ENDBRANCH  48  49
ENDBRANCH  47  48
ENDBRANCH  46  47
ENDBRANCH  44  46
ENDBRANCH  40  44
ENDBRANCH  32  35
ENDBRANCH   3  32
TORSDOF 14
ENDMDL
MODEL 5
REMARK minimizedAffinity -7.55460691
REMARK CNNscore 0.255673349
REMARK CNNaffinity 5.77633715
REMARK SMILES CC(=O)N[C@@H](Cc1c[nH]c2ccccc12)C(=O)Nc1ccc(C(=O)NS(=O)(=O)c2ccc(NCCSc3ccccc3)c([N+](=O)[O-])c2)cc1
REMARK SMILES IDX 23 1 24 2 25 3 22 5 19 6 20 7 49 8 21 9 48 10 18 11 16 12
REMARK SMILES IDX 17 13 5 15 4 16 2 17 3 18 1 19 6 21 7 22 8 23 15 24 9 25
REMARK SMILES IDX 14 26 10 27 13 28 11 29 12 30 26 32 27 33 28 34 29 35 30 36
REMARK SMILES IDX 47 37 31 38 43 39 32 40 44 41 45 42 46 43 33 44 34 46 35 47
REMARK SMILES IDX 36 48 37 49 38 50 42 51 39 52 41 53 40 54
REMARK H PARENT 25 4 18 14 4 20 9 31 33 45
ROOT
ATOM      1  C   UNL     1      -9.819   1.822   7.542  1.00  0.00     0.264 C 
ATOM      2  O   UNL     1     -10.541   2.021   8.505  1.00  0.00    -0.268 OA
ATOM      3  N   UNL     1      -8.466   2.190   7.490  1.00  0.00    -0.245 N 
ATOM      4  H   UNL     1      -7.949   2.144   6.621  1.00  0.00     0.183 HD
ENDROOT
BRANCH   1   5
ATOM      5  C   UNL     1     -10.346   1.149   6.324  1.00  0.00     0.040 A 
ATOM      6  C   UNL     1     -11.245  -0.165   3.998  1.00  0.00     0.041 A 
ATOM      7  C   UNL     1     -12.148   0.503   4.830  1.00  0.00     0.027 A 
ATOM      8  C   UNL     1      -9.887  -0.171   4.341  1.00  0.00     0.027 A 
ATOM      9  C   UNL     1     -11.705   1.156   5.989  1.00  0.00     0.016 A 
ATOM     10  C   UNL     1      -9.439   0.487   5.492  1.00  0.00     0.016 A 
BRANCH   6  11
ATOM     11  N   UNL     1     -11.609  -0.833   2.811  1.00  0.00    -0.324 N 
ATOM     12  C   UNL     1     -12.339  -2.007   2.685  1.00  0.00     0.247 C 
ATOM     13  O   UNL     1     -12.809  -2.671   3.608  1.00  0.00    -0.272 OA
ATOM     14  H   UNL     1     -11.266  -0.420   1.951  1.00  0.00     0.170 HD
BRANCH  12  15
ATOM     15  C   UNL     1     -12.611  -2.387   1.215  1.00  0.00     0.176 C 
BRANCH  15  16
ATOM     16  N   UNL     1     -14.042  -2.236   0.956  1.00  0.00    -0.344 N 
ATOM     17  C   UNL     1     -14.607  -0.982   0.905  1.00  0.00     0.217 C 
ATOM     18  O   UNL     1     -13.999   0.046   1.180  1.00  0.00    -0.275 OA
ATOM     19  C   UNL     1     -16.060  -0.985   0.513  1.00  0.00     0.114 C 
ATOM     20  H   UNL     1     -14.480  -2.961   0.403  1.00  0.00     0.164 HD
ENDBRANCH  15  16
BRANCH  15  21
ATOM     21  C   UNL     1     -11.755  -1.477   0.321  1.00  0.00     0.072 C 
BRANCH  21  22
ATOM     22  C   UNL     1     -11.445  -2.088  -1.012  1.00  0.00    -0.020 A 
ATOM     23  C   UNL     1     -11.971  -1.707  -2.231  1.00  0.00     0.087 A 
ATOM     24  C   UNL     1     -10.545  -3.174  -1.270  1.00  0.00     0.003 A 
ATOM     25  N   UNL     1     -11.416  -2.494  -3.205  1.00  0.00    -0.361 N 
ATOM     26  C   UNL     1      -9.723  -3.983  -0.457  1.00  0.00     0.010 A 
ATOM     27  C   UNL     1     -10.546  -3.400  -2.646  1.00  0.00     0.046 A 
ATOM     28  C   UNL     1      -8.941  -4.981  -1.045  1.00  0.00     0.001 A 
ATOM     29  C   UNL     1      -9.766  -4.391  -3.252  1.00  0.00     0.026 A 
ATOM     30  C   UNL     1      -8.962  -5.179  -2.423  1.00  0.00     0.002 A 
ATOM     31  H   UNL     1     -11.613  -2.426  -4.195  1.00  0.00     0.166 HD
ENDBRANCH  21  22
ENDBRANCH  15  21
ENDBRANCH  12  15
ENDBRANCH   6  11
ENDBRANCH   1   5
BRANCH   3  32
ATOM     32  S   UNL     1      -7.736   3.023   8.740  1.00  0.00     0.264 S 
ATOM     33  O   UNL     1      -8.271   2.564  10.002  1.00  0.00    -0.201 OA
ATOM     34  O   UNL     1      -6.317   3.121   8.476  1.00  0.00    -0.201 OA
BRANCH  32  35
ATOM     35  C   UNL     1      -8.416   4.652   8.485  1.00  0.00     0.094 A 
ATOM     36  C   UNL     1      -8.599   5.143   7.197  1.00  0.00     0.025 A 
ATOM     37  C   UNL     1      -8.734   5.439   9.591  1.00  0.00     0.110 A 
ATOM     38  C   UNL     1      -9.106   6.436   7.009  1.00  0.00     0.034 A 
ATOM     39  C   UNL     1      -9.249   6.731   9.384  1.00  0.00     0.293 A 
ATOM     40  C   UNL     1      -9.417   7.283   8.090  1.00  0.00     0.113 A 
BRANCH  39  41
ATOM     41  N   UNL     1      -9.615   7.493  10.581  1.00  0.00     0.065 N 
ATOM     42  O   UNL     1     -10.826   7.651  10.798  1.00  0.00    -0.258 OA
ATOM     43  O   UNL     1      -8.705   7.925  11.302  1.00  0.00    -0.258 OA
ENDBRANCH  39  41
BRANCH  40  44
ATOM     44  N   UNL     1     -10.009   8.538   7.879  1.00  0.00    -0.379 N 
ATOM     45  H   UNL     1     -10.388   8.927   8.755  1.00  0.00     0.160 HD
BRANCH  44  46
ATOM     46  C   UNL     1      -9.308   9.604   7.145  1.00  0.00     0.124 C 
BRANCH  46  47
ATOM     47  C   UNL     1      -9.911   9.862   5.758  1.00  0.00     0.096 C 
BRANCH  47  48
ATOM     48  S   UNL     1     -11.497  10.768   5.899  1.00  0.00    -0.124 SA
BRANCH  48  49
ATOM     49  C   UNL     1     -12.164  10.550   4.259  1.00  0.00     0.007 A 
ATOM     50  C   UNL     1     -11.282  10.619   3.173  1.00  0.00     0.015 A 
ATOM     51  C   UNL     1     -13.528  10.354   4.016  1.00  0.00     0.015 A 
ATOM     52  C   UNL     1     -11.752  10.475   1.866  1.00  0.00     0.001 A 
ATOM     53  C   UNL     1     -13.998  10.205   2.709  1.00  0.00     0.001 A 
ATOM     54  C   UNL     1     -13.111  10.264   1.635  1.00  0.00     0.000 A 
ENDBRANCH  48  49
ENDBRANCH  47  48
ENDBRANCH  46  47
ENDBRANCH  44  46
ENDBRANCH  40  44
ENDBRANCH  32  35
ENDBRANCH   3  32
TORSDOF 14
ENDMDL
MODEL 6
REMARK minimizedAffinity -6.91495466
REMARK CNNscore 0.20783487
REMARK CNNaffinity 5.50223112
REMARK SMILES CC(=O)N[C@@H](Cc1c[nH]c2ccccc12)C(=O)Nc1ccc(C(=O)NS(=O)(=O)c2ccc(NCCSc3ccccc3)c([N+](=O)[O-])c2)cc1
REMARK SMILES IDX 23 1 24 2 25 3 22 5 19 6 20 7 49 8 21 9 48 10 18 11 16 12
REMARK SMILES IDX 17 13 5 15 4 16 2 17 3 18 1 19 6 21 7 22 8 23 15 24 9 25
REMARK SMILES IDX 14 26 10 27 13 28 11 29 12 30 26 32 27 33 28 34 29 35 30 36
REMARK SMILES IDX 47 37 31 38 43 39 32 40 44 41 45 42 46 43 33 44 34 46 35 47
REMARK SMILES IDX 36 48 37 49 38 50 42 51 39 52 41 53 40 54
REMARK H PARENT 25 4 18 14 4 20 9 31 33 45
ROOT
ATOM      1  C   UNL     1      15.295  11.795   1.549  1.00  0.00     0.264 C 
ATOM      2  O   UNL     1      14.707  12.354   0.637  1.00  0.00    -0.268 OA
ATOM      3  N   UNL     1      15.607  12.411   2.771  1.00  0.00    -0.245 N 
ATOM      4  H   UNL     1      16.225  11.962   3.435  1.00  0.00     0.183 HD
ENDROOT
BRANCH   1   5
ATOM      5  C   UNL     1      15.727  10.377   1.418  1.00  0.00     0.040 A 
ATOM      6  C   UNL     1      16.465   7.676   1.094  1.00  0.00     0.041 A 
ATOM      7  C   UNL     1      17.218   8.525   1.910  1.00  0.00     0.027 A 
ATOM      8  C   UNL     1      15.339   8.191   0.439  1.00  0.00     0.027 A 
ATOM      9  C   UNL     1      16.855   9.870   2.072  1.00  0.00     0.016 A 
ATOM     10  C   UNL     1      14.968   9.530   0.604  1.00  0.00     0.016 A 
BRANCH   6  11
ATOM     11  N   UNL     1      16.757   6.312   0.892  1.00  0.00    -0.324 N 
ATOM     12  C   UNL     1      16.664   5.277   1.812  1.00  0.00     0.247 C 
ATOM     13  O   UNL     1      16.294   5.377   2.981  1.00  0.00    -0.272 OA
ATOM     14  H   UNL     1      17.108   6.069  -0.028  1.00  0.00     0.170 HD
BRANCH  12  15
ATOM     15  C   UNL     1      16.989   3.899   1.197  1.00  0.00     0.176 C 
BRANCH  15  16
ATOM     16  N   UNL     1      17.383   2.994   2.275  1.00  0.00    -0.344 N 
ATOM     17  C   UNL     1      18.713   2.827   2.587  1.00  0.00     0.217 C 
ATOM     18  O   UNL     1      19.627   3.313   1.932  1.00  0.00    -0.275 OA
ATOM     19  C   UNL     1      18.951   1.959   3.792  1.00  0.00     0.114 C 
ATOM     20  H   UNL     1      16.715   2.865   3.023  1.00  0.00     0.164 HD
ENDBRANCH  15  16
BRANCH  15  21
ATOM     21  C   UNL     1      15.743   3.408   0.446  1.00  0.00     0.072 C 
BRANCH  21  22
ATOM     22  C   UNL     1      15.906   3.437  -1.044  1.00  0.00    -0.020 A 
ATOM     23  C   UNL     1      14.897   3.573  -1.978  1.00  0.00     0.087 A 
ATOM     24  C   UNL     1      17.135   3.333  -1.774  1.00  0.00     0.003 A 
ATOM     25  N   UNL     1      15.462   3.578  -3.225  1.00  0.00    -0.361 N 
ATOM     26  C   UNL     1      18.487   3.172  -1.404  1.00  0.00     0.010 A 
ATOM     27  C   UNL     1      16.826   3.428  -3.130  1.00  0.00     0.046 A 
ATOM     28  C   UNL     1      19.472   3.111  -2.395  1.00  0.00     0.001 A 
ATOM     29  C   UNL     1      17.797   3.374  -4.135  1.00  0.00     0.026 A 
ATOM     30  C   UNL     1      19.129   3.213  -3.741  1.00  0.00     0.002 A 
ATOM     31  H   UNL     1      14.956   3.675  -4.096  1.00  0.00     0.166 HD
ENDBRANCH  21  22
ENDBRANCH  15  21
ENDBRANCH  12  15
ENDBRANCH   6  11
ENDBRANCH   1   5
BRANCH   3  32
ATOM     32  S   UNL     1      15.263  14.020   3.054  1.00  0.00     0.264 S 
ATOM     33  O   UNL     1      16.330  14.610   3.832  1.00  0.00    -0.201 OA
ATOM     34  O   UNL     1      14.756  14.615   1.838  1.00  0.00    -0.201 OA
BRANCH  32  35
ATOM     35  C   UNL     1      13.877  13.866   4.165  1.00  0.00     0.094 A 
ATOM     36  C   UNL     1      12.594  14.188   3.735  1.00  0.00     0.025 A 
ATOM     37  C   UNL     1      14.096  13.449   5.477  1.00  0.00     0.110 A 
ATOM     38  C   UNL     1      11.516  14.092   4.625  1.00  0.00     0.034 A 
ATOM     39  C   UNL     1      13.002  13.351   6.355  1.00  0.00     0.293 A 
ATOM     40  C   UNL     1      11.685  13.704   5.968  1.00  0.00     0.113 A 
BRANCH  39  41
ATOM     41  N   UNL     1      13.283  12.857   7.705  1.00  0.00     0.065 N 
ATOM     42  O   UNL     1      13.033  11.664   7.931  1.00  0.00    -0.258 OA
ATOM     43  O   UNL     1      13.757  13.650   8.532  1.00  0.00    -0.258 OA
ENDBRANCH  39  41
BRANCH  40  44
ATOM     44  N   UNL     1      10.580  13.526   6.816  1.00  0.00    -0.379 N 
ATOM     45  H   UNL     1      10.859  13.098   7.711  1.00  0.00     0.160 HD
BRANCH  44  46
ATOM     46  C   UNL     1       9.633  14.622   7.081  1.00  0.00     0.124 C 
BRANCH  46  47
ATOM     47  C   UNL     1      10.158  15.617   8.123  1.00  0.00     0.096 C 
BRANCH  47  48
ATOM     48  S   UNL     1       9.195  17.174   8.075  1.00  0.00    -0.124 SA
BRANCH  48  49
ATOM     49  C   UNL     1       7.574  16.589   8.534  1.00  0.00     0.007 A 
ATOM     50  C   UNL     1       6.848  17.326   9.479  1.00  0.00     0.015 A 
ATOM     51  C   UNL     1       7.020  15.412   8.018  1.00  0.00     0.015 A 
ATOM     52  C   UNL     1       5.582  16.904   9.888  1.00  0.00     0.001 A 
ATOM     53  C   UNL     1       5.751  14.992   8.425  1.00  0.00     0.001 A 
ATOM     54  C   UNL     1       5.031  15.738   9.358  1.00  0.00     0.000 A 
ENDBRANCH  48  49
ENDBRANCH  47  48
ENDBRANCH  46  47
ENDBRANCH  44  46
ENDBRANCH  40  44
ENDBRANCH  32  35
ENDBRANCH   3  32
TORSDOF 14
ENDMDL
MODEL 7
REMARK minimizedAffinity -7.72191238
REMARK CNNscore 0.206032068
REMARK CNNaffinity 5.98519707
REMARK SMILES CC(=O)N[C@@H](Cc1c[nH]c2ccccc12)C(=O)Nc1ccc(C(=O)NS(=O)(=O)c2ccc(NCCSc3ccccc3)c([N+](=O)[O-])c2)cc1
REMARK SMILES IDX 23 1 24 2 25 3 22 5 19 6 20 7 49 8 21 9 48 10 18 11 16 12
REMARK SMILES IDX 17 13 5 15 4 16 2 17 3 18 1 19 6 21 7 22 8 23 15 24 9 25
REMARK SMILES IDX 14 26 10 27 13 28 11 29 12 30 26 32 27 33 28 34 29 35 30 36
REMARK SMILES IDX 47 37 31 38 43 39 32 40 44 41 45 42 46 43 33 44 34 46 35 47
REMARK SMILES IDX 36 48 37 49 38 50 42 51 39 52 41 53 40 54
REMARK H PARENT 25 4 18 14 4 20 9 31 33 45
ROOT
ATOM      1  C   UNL     1       0.143   8.611  10.093  1.00  0.00     0.264 C 
ATOM      2  O   UNL     1       1.282   8.224   9.889  1.00  0.00    -0.268 OA
ATOM      3  N   UNL     1      -0.246   9.959  10.037  1.00  0.00    -0.245 N 
ATOM      4  H   UNL     1      -1.160  10.248  10.361  1.00  0.00     0.183 HD
ENDROOT
BRANCH   1   5
ATOM      5  C   UNL     1      -0.941   7.645  10.419  1.00  0.00     0.040 A 
ATOM      6  C   UNL     1      -3.065   5.899  11.036  1.00  0.00     0.041 A 
ATOM      7  C   UNL     1      -1.784   5.398  10.790  1.00  0.00     0.027 A 
ATOM      8  C   UNL     1      -3.275   7.282  10.970  1.00  0.00     0.027 A 
ATOM      9  C   UNL     1      -0.725   6.264  10.480  1.00  0.00     0.016 A 
ATOM     10  C   UNL     1      -2.220   8.151  10.670  1.00  0.00     0.016 A 
BRANCH   6  11
ATOM     11  N   UNL     1      -4.177   5.096  11.366  1.00  0.00    -0.324 N 
ATOM     12  C   UNL     1      -4.882   4.238  10.535  1.00  0.00     0.247 C 
ATOM     13  O   UNL     1      -4.645   4.020   9.348  1.00  0.00    -0.272 OA
ATOM     14  H   UNL     1      -4.517   5.187  12.316  1.00  0.00     0.170 HD
BRANCH  12  15
ATOM     15  C   UNL     1      -5.991   3.462  11.278  1.00  0.00     0.176 C 
BRANCH  15  16
ATOM     16  N   UNL     1      -5.791   3.636  12.715  1.00  0.00    -0.344 N 
ATOM     17  C   UNL     1      -5.472   2.555  13.505  1.00  0.00     0.217 C 
ATOM     18  O   UNL     1      -5.451   1.400  13.095  1.00  0.00    -0.275 OA
ATOM     19  C   UNL     1      -5.182   2.912  14.937  1.00  0.00     0.114 C 
ATOM     20  H   UNL     1      -5.460   4.542  13.019  1.00  0.00     0.164 HD
ENDBRANCH  15  16
BRANCH  15  21
ATOM     21  C   UNL     1      -7.348   4.003  10.805  1.00  0.00     0.072 C 
BRANCH  21  22
ATOM     22  C   UNL     1      -7.872   3.293   9.593  1.00  0.00    -0.020 A 
ATOM     23  C   UNL     1      -8.114   3.855   8.354  1.00  0.00     0.087 A 
ATOM     24  C   UNL     1      -8.215   1.905   9.493  1.00  0.00     0.003 A 
ATOM     25  N   UNL     1      -8.563   2.870   7.515  1.00  0.00    -0.361 N 
ATOM     26  C   UNL     1      -8.198   0.822  10.397  1.00  0.00     0.010 A 
ATOM     27  C   UNL     1      -8.638   1.672   8.185  1.00  0.00     0.046 A 
ATOM     28  C   UNL     1      -8.603  -0.445   9.963  1.00  0.00     0.001 A 
ATOM     29  C   UNL     1      -9.042   0.411   7.732  1.00  0.00     0.026 A 
ATOM     30  C   UNL     1      -9.017  -0.645   8.648  1.00  0.00     0.002 A 
ATOM     31  H   UNL     1      -8.807   2.998   6.541  1.00  0.00     0.166 HD
ENDBRANCH  21  22
ENDBRANCH  15  21
ENDBRANCH  12  15
ENDBRANCH   6  11
ENDBRANCH   1   5
BRANCH   3  32
ATOM     32  S   UNL     1       0.860  11.179   9.761  1.00  0.00     0.264 S 
ATOM     33  O   UNL     1       1.850  11.179  10.815  1.00  0.00    -0.201 OA
ATOM     34  O   UNL     1       1.206  11.193   8.357  1.00  0.00    -0.201 OA
BRANCH  32  35
ATOM     35  C   UNL     1      -0.160  12.613  10.050  1.00  0.00     0.094 A 
ATOM     36  C   UNL     1      -0.222  13.632   9.105  1.00  0.00     0.025 A 
ATOM     37  C   UNL     1      -0.869  12.716  11.246  1.00  0.00     0.110 A 
ATOM     38  C   UNL     1      -1.004  14.768   9.356  1.00  0.00     0.034 A 
ATOM     39  C   UNL     1      -1.654  13.860  11.478  1.00  0.00     0.293 A 
ATOM     40  C   UNL     1      -1.717  14.936  10.559  1.00  0.00     0.113 A 
BRANCH  39  41
ATOM     41  N   UNL     1      -2.419  13.891  12.727  1.00  0.00     0.065 N 
ATOM     42  O   UNL     1      -3.653  13.818  12.632  1.00  0.00    -0.258 OA
ATOM     43  O   UNL     1      -1.796  13.980  13.794  1.00  0.00    -0.258 OA
ENDBRANCH  39  41
BRANCH  40  44
ATOM     44  N   UNL     1      -2.565  16.039  10.749  1.00  0.00    -0.379 N 
ATOM     45  H   UNL     1      -2.060  16.928  10.615  1.00  0.00     0.160 HD
BRANCH  44  46
ATOM     46  C   UNL     1      -3.874  16.125  10.083  1.00  0.00     0.124 C 
BRANCH  46  47
ATOM     47  C   UNL     1      -3.793  16.786   8.702  1.00  0.00     0.096 C 
BRANCH  47  48
ATOM     48  S   UNL     1      -4.252  15.598   7.386  1.00  0.00    -0.124 SA
BRANCH  48  49
ATOM     49  C   UNL     1      -2.967  15.902   6.185  1.00  0.00     0.007 A 
ATOM     50  C   UNL     1      -1.803  16.553   6.613  1.00  0.00     0.015 A 
ATOM     51  C   UNL     1      -3.094  15.552   4.836  1.00  0.00     0.015 A 
ATOM     52  C   UNL     1      -0.774  16.833   5.712  1.00  0.00     0.001 A 
ATOM     53  C   UNL     1      -2.062  15.829   3.935  1.00  0.00     0.001 A 
ATOM     54  C   UNL     1      -0.903  16.467   4.373  1.00  0.00     0.000 A 
ENDBRANCH  48  49
ENDBRANCH  47  48
ENDBRANCH  46  47
ENDBRANCH  44  46
ENDBRANCH  40  44
ENDBRANCH  32  35
ENDBRANCH   3  32
TORSDOF 14
ENDMDL
MODEL 8
REMARK minimizedAffinity -6.81310034
REMARK CNNscore 0.188528866
REMARK CNNaffinity 5.85427523
REMARK SMILES CC(=O)N[C@@H](Cc1c[nH]c2ccccc12)C(=O)Nc1ccc(C(=O)NS(=O)(=O)c2ccc(NCCSc3ccccc3)c([N+](=O)[O-])c2)cc1
REMARK SMILES IDX 23 1 24 2 25 3 22 5 19 6 20 7 49 8 21 9 48 10 18 11 16 12
REMARK SMILES IDX 17 13 5 15 4 16 2 17 3 18 1 19 6 21 7 22 8 23 15 24 9 25
REMARK SMILES IDX 14 26 10 27 13 28 11 29 12 30 26 32 27 33 28 34 29 35 30 36
REMARK SMILES IDX 47 37 31 38 43 39 32 40 44 41 45 42 46 43 33 44 34 46 35 47
REMARK SMILES IDX 36 48 37 49 38 50 42 51 39 52 41 53 40 54
REMARK H PARENT 25 4 18 14 4 20 9 31 33 45
ROOT
ATOM      1  C   UNL     1      13.469   6.155  -4.348  1.00  0.00     0.264 C 
ATOM      2  O   UNL     1      12.299   6.289  -4.026  1.00  0.00    -0.268 OA
ATOM      3  N   UNL     1      13.980   6.516  -5.604  1.00  0.00    -0.245 N 
ATOM      4  H   UNL     1      14.915   6.247  -5.880  1.00  0.00     0.183 HD
ENDROOT
BRANCH   1   5
ATOM      5  C   UNL     1      14.458   5.584  -3.395  1.00  0.00     0.040 A 
ATOM      6  C   UNL     1      16.357   4.606  -1.555  1.00  0.00     0.041 A 
ATOM      7  C   UNL     1      15.562   3.723  -2.292  1.00  0.00     0.027 A 
ATOM      8  C   UNL     1      16.193   5.984  -1.746  1.00  0.00     0.027 A 
ATOM      9  C   UNL     1      14.614   4.206  -3.206  1.00  0.00     0.016 A 
ATOM     10  C   UNL     1      15.256   6.471  -2.664  1.00  0.00     0.016 A 
BRANCH   6  11
ATOM     11  N   UNL     1      17.338   4.199  -0.628  1.00  0.00    -0.324 N 
ATOM     12  C   UNL     1      17.157   3.844   0.702  1.00  0.00     0.247 C 
ATOM     13  O   UNL     1      16.084   3.813   1.304  1.00  0.00    -0.272 OA
ATOM     14  H   UNL     1      18.292   4.201  -0.969  1.00  0.00     0.170 HD
BRANCH  12  15
ATOM     15  C   UNL     1      18.461   3.373   1.378  1.00  0.00     0.176 C 
BRANCH  15  16
ATOM     16  N   UNL     1      19.130   4.539   1.953  1.00  0.00    -0.344 N 
ATOM     17  C   UNL     1      18.772   4.997   3.200  1.00  0.00     0.217 C 
ATOM     18  O   UNL     1      17.826   4.551   3.839  1.00  0.00    -0.275 OA
ATOM     19  C   UNL     1      19.630   6.127   3.702  1.00  0.00     0.114 C 
ATOM     20  H   UNL     1      20.084   4.703   1.657  1.00  0.00     0.164 HD
ENDBRANCH  15  16
BRANCH  15  21
ATOM     21  C   UNL     1      18.095   2.325   2.440  1.00  0.00     0.072 C 
BRANCH  21  22
ATOM     22  C   UNL     1      19.205   1.356   2.714  1.00  0.00    -0.020 A 
ATOM     23  C   UNL     1      20.210   0.990   1.839  1.00  0.00     0.087 A 
ATOM     24  C   UNL     1      19.432   0.635   3.932  1.00  0.00     0.003 A 
ATOM     25  N   UNL     1      21.036   0.105   2.479  1.00  0.00    -0.361 N 
ATOM     26  C   UNL     1      18.767   0.570   5.174  1.00  0.00     0.010 A 
ATOM     27  C   UNL     1      20.583  -0.133   3.755  1.00  0.00     0.046 A 
ATOM     28  C   UNL     1      19.271  -0.255   6.185  1.00  0.00     0.001 A 
ATOM     29  C   UNL     1      21.104  -0.960   4.756  1.00  0.00     0.026 A 
ATOM     30  C   UNL     1      20.424  -1.007   5.976  1.00  0.00     0.002 A 
ATOM     31  H   UNL     1      21.862  -0.319   2.077  1.00  0.00     0.166 HD
ENDBRANCH  21  22
ENDBRANCH  15  21
ENDBRANCH  12  15
ENDBRANCH   6  11
ENDBRANCH   1   5
BRANCH   3  32
ATOM     32  S   UNL     1      12.991   7.098  -6.818  1.00  0.00     0.264 S 
ATOM     33  O   UNL     1      13.714   7.096  -8.070  1.00  0.00    -0.201 OA
ATOM     34  O   UNL     1      11.673   6.522  -6.670  1.00  0.00    -0.201 OA
BRANCH  32  35
ATOM     35  C   UNL     1      12.858   8.810  -6.335  1.00  0.00     0.094 A 
ATOM     36  C   UNL     1      11.633   9.465  -6.406  1.00  0.00     0.025 A 
ATOM     37  C   UNL     1      13.999   9.492  -5.916  1.00  0.00     0.110 A 
ATOM     38  C   UNL     1      11.545  10.819  -6.052  1.00  0.00     0.034 A 
ATOM     39  C   UNL     1      13.891  10.848  -5.558  1.00  0.00     0.293 A 
ATOM     40  C   UNL     1      12.671  11.562  -5.649  1.00  0.00     0.113 A 
BRANCH  39  41
ATOM     41  N   UNL     1      15.111  11.499  -5.074  1.00  0.00     0.065 N 
ATOM     42  O   UNL     1      16.066  11.561  -5.863  1.00  0.00    -0.258 OA
ATOM     43  O   UNL     1      15.116  11.952  -3.921  1.00  0.00    -0.258 OA
ENDBRANCH  39  41
BRANCH  40  44
ATOM     44  N   UNL     1      12.543  12.891  -5.213  1.00  0.00    -0.379 N 
ATOM     45  H   UNL     1      13.306  13.149  -4.569  1.00  0.00     0.160 HD
BRANCH  44  46
ATOM     46  C   UNL     1      12.323  13.993  -6.164  1.00  0.00     0.124 C 
BRANCH  46  47
ATOM     47  C   UNL     1      13.619  14.453  -6.845  1.00  0.00     0.096 C 
BRANCH  47  48
ATOM     48  S   UNL     1      13.985  13.416  -8.310  1.00  0.00    -0.124 SA
BRANCH  48  49
ATOM     49  C   UNL     1      12.429  13.489  -9.179  1.00  0.00     0.007 A 
ATOM     50  C   UNL     1      11.992  14.734  -9.649  1.00  0.00     0.015 A 
ATOM     51  C   UNL     1      11.618  12.366  -9.375  1.00  0.00     0.015 A 
ATOM     52  C   UNL     1      10.774  14.852 -10.321  1.00  0.00     0.001 A 
ATOM     53  C   UNL     1      10.400  12.483 -10.050  1.00  0.00     0.001 A 
ATOM     54  C   UNL     1       9.979  13.725 -10.524  1.00  0.00     0.000 A 
ENDBRANCH  48  49
ENDBRANCH  47  48
ENDBRANCH  46  47
ENDBRANCH  44  46
ENDBRANCH  40  44
ENDBRANCH  32  35
ENDBRANCH   3  32
TORSDOF 14
ENDMDL
MODEL 9
REMARK minimizedAffinity -6.32860565
REMARK CNNscore 0.183289662
REMARK CNNaffinity 5.72728539
REMARK SMILES CC(=O)N[C@@H](Cc1c[nH]c2ccccc12)C(=O)Nc1ccc(C(=O)NS(=O)(=O)c2ccc(NCCSc3ccccc3)c([N+](=O)[O-])c2)cc1
REMARK SMILES IDX 23 1 24 2 25 3 22 5 19 6 20 7 49 8 21 9 48 10 18 11 16 12
REMARK SMILES IDX 17 13 5 15 4 16 2 17 3 18 1 19 6 21 7 22 8 23 15 24 9 25
REMARK SMILES IDX 14 26 10 27 13 28 11 29 12 30 26 32 27 33 28 34 29 35 30 36
REMARK SMILES IDX 47 37 31 38 43 39 32 40 44 41 45 42 46 43 33 44 34 46 35 47
REMARK SMILES IDX 36 48 37 49 38 50 42 51 39 52 41 53 40 54
REMARK H PARENT 25 4 18 14 4 20 9 31 33 45
ROOT
ATOM      1  C   UNL     1      15.798  12.278   1.509  1.00  0.00     0.264 C 
ATOM      2  O   UNL     1      16.602  13.110   1.119  1.00  0.00    -0.268 OA
ATOM      3  N   UNL     1      15.080  12.388   2.709  1.00  0.00    -0.245 N 
ATOM      4  H   UNL     1      14.542  11.607   3.065  1.00  0.00     0.183 HD
ENDROOT
BRANCH   1   5
ATOM      5  C   UNL     1      15.517  11.058   0.704  1.00  0.00     0.040 A 
ATOM      6  C   UNL     1      15.017   8.803  -0.911  1.00  0.00     0.041 A 
ATOM      7  C   UNL     1      14.903   8.720   0.480  1.00  0.00     0.027 A 
ATOM      8  C   UNL     1      15.385  10.025  -1.487  1.00  0.00     0.027 A 
ATOM      9  C   UNL     1      15.153   9.839   1.287  1.00  0.00     0.016 A 
ATOM     10  C   UNL     1      15.627  11.147  -0.687  1.00  0.00     0.016 A 
BRANCH   6  11
ATOM     11  N   UNL     1      14.770   7.728  -1.790  1.00  0.00    -0.324 N 
ATOM     12  C   UNL     1      15.700   6.935  -2.447  1.00  0.00     0.247 C 
ATOM     13  O   UNL     1      16.924   7.032  -2.362  1.00  0.00    -0.272 OA
ATOM     14  H   UNL     1      13.794   7.538  -1.988  1.00  0.00     0.170 HD
BRANCH  12  15
ATOM     15  C   UNL     1      15.049   5.799  -3.262  1.00  0.00     0.176 C 
BRANCH  15  16
ATOM     16  N   UNL     1      14.902   6.249  -4.645  1.00  0.00    -0.344 N 
ATOM     17  C   UNL     1      13.767   6.920  -5.038  1.00  0.00     0.217 C 
ATOM     18  O   UNL     1      12.789   7.076  -4.316  1.00  0.00    -0.275 OA
ATOM     19  C   UNL     1      13.816   7.421  -6.456  1.00  0.00     0.114 C 
ATOM     20  H   UNL     1      15.757   6.458  -5.145  1.00  0.00     0.164 HD
ENDBRANCH  15  16
BRANCH  15  21
ATOM     21  C   UNL     1      15.941   4.555  -3.142  1.00  0.00     0.072 C 
BRANCH  21  22
ATOM     22  C   UNL     1      15.819   3.872  -1.814  1.00  0.00    -0.020 A 
ATOM     23  C   UNL     1      14.686   3.269  -1.302  1.00  0.00     0.087 A 
ATOM     24  C   UNL     1      16.853   3.713  -0.833  1.00  0.00     0.003 A 
ATOM     25  N   UNL     1      14.995   2.741  -0.077  1.00  0.00    -0.361 N 
ATOM     26  C   UNL     1      18.206   4.106  -0.759  1.00  0.00     0.010 A 
ATOM     27  C   UNL     1      16.309   3.000   0.236  1.00  0.00     0.046 A 
ATOM     28  C   UNL     1      18.959   3.776   0.372  1.00  0.00     0.001 A 
ATOM     29  C   UNL     1      17.048   2.658   1.373  1.00  0.00     0.026 A 
ATOM     30  C   UNL     1      18.386   3.061   1.421  1.00  0.00     0.002 A 
ATOM     31  H   UNL     1      14.355   2.232   0.519  1.00  0.00     0.166 HD
ENDBRANCH  21  22
ENDBRANCH  15  21
ENDBRANCH  12  15
ENDBRANCH   6  11
ENDBRANCH   1   5
BRANCH   3  32
ATOM     32  S   UNL     1      15.331  13.654   3.768  1.00  0.00     0.264 S 
ATOM     33  O   UNL     1      16.744  13.773   4.051  1.00  0.00    -0.201 OA
ATOM     34  O   UNL     1      14.513  14.776   3.364  1.00  0.00    -0.201 OA
BRANCH  32  35
ATOM     35  C   UNL     1      14.592  12.990   5.250  1.00  0.00     0.094 A 
ATOM     36  C   UNL     1      15.188  11.923   5.914  1.00  0.00     0.025 A 
ATOM     37  C   UNL     1      13.396  13.531   5.717  1.00  0.00     0.110 A 
ATOM     38  C   UNL     1      14.583  11.390   7.061  1.00  0.00     0.034 A 
ATOM     39  C   UNL     1      12.806  12.989   6.873  1.00  0.00     0.293 A 
ATOM     40  C   UNL     1      13.361  11.880   7.559  1.00  0.00     0.113 A 
BRANCH  39  41
ATOM     41  N   UNL     1      11.578  13.631   7.349  1.00  0.00     0.065 N 
ATOM     42  O   UNL     1      10.562  13.486   6.654  1.00  0.00    -0.258 OA
ATOM     43  O   UNL     1      11.624  14.269   8.410  1.00  0.00    -0.258 OA
ENDBRANCH  39  41
BRANCH  40  44
ATOM     44  N   UNL     1      12.821  11.391   8.759  1.00  0.00    -0.379 N 
ATOM     45  H   UNL     1      12.242  10.554   8.597  1.00  0.00     0.160 HD
BRANCH  44  46
ATOM     46  C   UNL     1      13.663  11.170   9.946  1.00  0.00     0.124 C 
BRANCH  46  47
ATOM     47  C   UNL     1      13.214  12.004  11.153  1.00  0.00     0.096 C 
BRANCH  47  48
ATOM     48  S   UNL     1      14.583  12.195  12.355  1.00  0.00    -0.124 SA
BRANCH  48  49
ATOM     49  C   UNL     1      14.391  10.714  13.332  1.00  0.00     0.007 A 
ATOM     50  C   UNL     1      13.093  10.250  13.580  1.00  0.00     0.015 A 
ATOM     51  C   UNL     1      15.476  10.027  13.886  1.00  0.00     0.015 A 
ATOM     52  C   UNL     1      12.883   9.107  14.354  1.00  0.00     0.001 A 
ATOM     53  C   UNL     1      15.267   8.880  14.657  1.00  0.00     0.001 A 
ATOM     54  C   UNL     1      13.972   8.420  14.889  1.00  0.00     0.000 A 
ENDBRANCH  48  49
ENDBRANCH  47  48
ENDBRANCH  46  47
ENDBRANCH  44  46
ENDBRANCH  40  44
ENDBRANCH  32  35
ENDBRANCH   3  32
TORSDOF 14
ENDMDL
