MODEL 1
REMARK minimizedAffinity -7.36786604
REMARK CNNscore 0.410277456
REMARK CNNaffinity 6.31161642
REMARK SMILES CC(=O)N[C@@H](Cc1ccccc1)C(=O)Nc1ccc(C(=O)NS(=O)(=O)c2ccc(NCCSc3ccccc3)c([N+](=O)[O-])c2)cc1
REMARK SMILES IDX 23 1 24 2 25 3 22 4 20 5 21 6 19 8 16 9 17 10 46 11 18 12
REMARK SMILES IDX 45 13 15 14 13 15 14 16 5 18 4 19 2 20 3 21 1 22 6 24 7 25
REMARK SMILES IDX 8 26 12 27 9 28 11 29 10 30 26 31 27 32 44 33 28 34 40 35
REMARK SMILES IDX 29 36 41 37 42 38 43 39 30 40 31 42 32 43 33 44 34 45 35 46
REMARK SMILES IDX 39 47 36 48 38 49 37 50
REMARK H PARENT 22 7 15 17 4 23 30 41
ROOT
ATOM      1  S   UNL     1      -3.678   4.080  10.221  1.00  0.00     0.264 S 
ATOM      2  O   UNL     1      -3.909   3.933   8.798  1.00  0.00    -0.201 OA
ATOM      3  O   UNL     1      -2.964   3.064  10.957  1.00  0.00    -0.201 OA
ENDROOT
BRANCH   1   4
ATOM      4  N   UNL     1      -2.908   5.542  10.391  1.00  0.00    -0.245 N 
ATOM      5  C   UNL     1      -1.537   5.746  10.206  1.00  0.00     0.264 C 
ATOM      6  O   UNL     1      -0.754   4.843   9.956  1.00  0.00    -0.268 OA
ATOM      7  H   UNL     1      -3.564   6.303  10.529  1.00  0.00     0.183 HD
BRANCH   5   8
ATOM      8  C   UNL     1      -1.062   7.149  10.359  1.00  0.00     0.040 A 
ATOM      9  C   UNL     1      -0.045   9.769  10.621  1.00  0.00     0.041 A 
ATOM     10  C   UNL     1      -1.413   9.552  10.443  1.00  0.00     0.027 A 
ATOM     11  C   UNL     1       0.810   8.663  10.683  1.00  0.00     0.027 A 
ATOM     12  C   UNL     1      -1.921   8.252  10.312  1.00  0.00     0.016 A 
ATOM     13  C   UNL     1       0.307   7.363  10.554  1.00  0.00     0.016 A 
BRANCH   9  14
ATOM     14  N   UNL     1       0.538  11.044  10.760  1.00  0.00    -0.324 N 
ATOM     15  C   UNL     1       1.289  11.733   9.820  1.00  0.00     0.247 C 
ATOM     16  O   UNL     1       1.590  11.335   8.695  1.00  0.00    -0.272 OA
ATOM     17  H   UNL     1       0.491  11.451  11.686  1.00  0.00     0.170 HD
BRANCH  15  18
ATOM     18  C   UNL     1       1.696  13.146  10.288  1.00  0.00     0.176 C 
BRANCH  18  19
ATOM     19  N   UNL     1       1.197  14.099   9.299  1.00  0.00    -0.344 N 
ATOM     20  C   UNL     1      -0.160  14.229   9.110  1.00  0.00     0.217 C 
ATOM     21  O   UNL     1      -0.988  13.508   9.655  1.00  0.00    -0.275 OA
ATOM     22  C   UNL     1      -0.550  15.350   8.185  1.00  0.00     0.114 C 
ATOM     23  H   UNL     1       1.753  14.937   9.167  1.00  0.00     0.164 HD
ENDBRANCH  18  19
BRANCH  18  24
ATOM     24  C   UNL     1       1.088  13.373  11.679  1.00  0.00     0.070 C 
BRANCH  24  25
ATOM     25  C   UNL     1       2.126  13.577  12.756  1.00  0.00    -0.045 A 
ATOM     26  C   UNL     1       2.019  14.646  13.658  1.00  0.00     0.004 A 
ATOM     27  C   UNL     1       3.206  12.693  12.878  1.00  0.00     0.004 A 
ATOM     28  C   UNL     1       2.971  14.821  14.664  1.00  0.00     0.000 A 
ATOM     29  C   UNL     1       4.156  12.871  13.885  1.00  0.00     0.000 A 
ATOM     30  C   UNL     1       4.039  13.934  14.777  1.00  0.00     0.000 A 
ENDBRANCH  24  25
ENDBRANCH  18  24
ENDBRANCH  15  18
ENDBRANCH   9  14
ENDBRANCH   5   8
ENDBRANCH   1   4
BRANCH   1  31
ATOM     31  C   UNL     1      -5.257   4.353  10.978  1.00  0.00     0.094 A 
ATOM     32  C   UNL     1      -6.412   3.913  10.335  1.00  0.00     0.025 A 
ATOM     33  C   UNL     1      -5.329   4.932  12.243  1.00  0.00     0.110 A 
ATOM     34  C   UNL     1      -7.653   4.044  10.970  1.00  0.00     0.034 A 
ATOM     35  C   UNL     1      -6.579   5.053  12.874  1.00  0.00     0.293 A 
ATOM     36  C   UNL     1      -7.771   4.577  12.268  1.00  0.00     0.113 A 
BRANCH  35  37
ATOM     37  N   UNL     1      -6.595   5.652  14.219  1.00  0.00     0.065 N 
ATOM     38  O   UNL     1      -6.144   4.984  15.165  1.00  0.00    -0.258 OA
ATOM     39  O   UNL     1      -7.054   6.798  14.337  1.00  0.00    -0.258 OA
ENDBRANCH  35  37
BRANCH  36  40
ATOM     40  N   UNL     1      -9.036   4.720  12.858  1.00  0.00    -0.379 N 
ATOM     41  H   UNL     1      -9.571   3.843  12.822  1.00  0.00     0.160 HD
BRANCH  40  42
ATOM     42  C   UNL     1      -9.902   5.862  12.535  1.00  0.00     0.124 C 
BRANCH  42  43
ATOM     43  C   UNL     1     -11.216   5.457  11.846  1.00  0.00     0.096 C 
BRANCH  43  44
ATOM     44  S   UNL     1     -11.516   6.303  10.246  1.00  0.00    -0.124 SA
BRANCH  44  45
ATOM     45  C   UNL     1     -10.473   5.426   9.096  1.00  0.00     0.007 A 
ATOM     46  C   UNL     1      -9.403   6.016   8.417  1.00  0.00     0.015 A 
ATOM     47  C   UNL     1     -10.707   4.055   8.918  1.00  0.00     0.015 A 
ATOM     48  C   UNL     1      -8.618   5.265   7.536  1.00  0.00     0.001 A 
ATOM     49  C   UNL     1      -9.920   3.302   8.043  1.00  0.00     0.001 A 
ATOM     50  C   UNL     1      -8.880   3.909   7.345  1.00  0.00     0.000 A 
ENDBRANCH  44  45
ENDBRANCH  43  44
ENDBRANCH  42  43
ENDBRANCH  40  42
ENDBRANCH  36  40
ENDBRANCH   1  31
TORSDOF 14
ENDMDL
MODEL 2
REMARK minimizedAffinity -6.66257143
REMARK CNNscore 0.339925528
REMARK CNNaffinity 5.61686325
REMARK SMILES CC(=O)N[C@@H](Cc1ccccc1)C(=O)Nc1ccc(C(=O)NS(=O)(=O)c2ccc(NCCSc3ccccc3)c([N+](=O)[O-])c2)cc1
REMARK SMILES IDX 23 1 24 2 25 3 22 4 20 5 21 6 19 8 16 9 17 10 46 11 18 12
REMARK SMILES IDX 45 13 15 14 13 15 14 16 5 18 4 19 2 20 3 21 1 22 6 24 7 25
REMARK SMILES IDX 8 26 12 27 9 28 11 29 10 30 26 31 27 32 44 33 28 34 40 35
REMARK SMILES IDX 29 36 41 37 42 38 43 39 30 40 31 42 32 43 33 44 34 45 35 46
REMARK SMILES IDX 39 47 36 48 38 49 37 50
REMARK H PARENT 22 7 15 17 4 23 30 41
ROOT
ATOM      1  S   UNL     1      -0.808   1.006  -7.293  1.00  0.00     0.264 S 
ATOM      2  O   UNL     1       0.021   0.407  -6.267  1.00  0.00    -0.201 OA
ATOM      3  O   UNL     1      -0.800   2.434  -7.502  1.00  0.00    -0.201 OA
ENDROOT
BRANCH   1   4
ATOM      4  N   UNL     1      -0.392   0.230  -8.702  1.00  0.00    -0.245 N 
ATOM      5  C   UNL     1       0.219   0.846  -9.799  1.00  0.00     0.264 C 
ATOM      6  O   UNL     1       0.455   2.043  -9.849  1.00  0.00    -0.268 OA
ATOM      7  H   UNL     1      -0.521  -0.773  -8.636  1.00  0.00     0.183 HD
BRANCH   5   8
ATOM      8  C   UNL     1       0.553  -0.047 -10.943  1.00  0.00     0.040 A 
ATOM      9  C   UNL     1       1.300  -1.686 -13.116  1.00  0.00     0.041 A 
ATOM     10  C   UNL     1       0.230  -2.041 -12.294  1.00  0.00     0.027 A 
ATOM     11  C   UNL     1       1.986  -0.495 -12.852  1.00  0.00     0.027 A 
ATOM     12  C   UNL     1      -0.144  -1.230 -11.213  1.00  0.00     0.016 A 
ATOM     13  C   UNL     1       1.616   0.319 -11.776  1.00  0.00     0.016 A 
BRANCH   9  14
ATOM     14  N   UNL     1       1.733  -2.449 -14.219  1.00  0.00    -0.324 N 
ATOM     15  C   UNL     1       2.860  -3.253 -14.296  1.00  0.00     0.247 C 
ATOM     16  O   UNL     1       3.694  -3.425 -13.407  1.00  0.00    -0.272 OA
ATOM     17  H   UNL     1       1.220  -2.308 -15.080  1.00  0.00     0.170 HD
BRANCH  15  18
ATOM     18  C   UNL     1       2.973  -4.010 -15.635  1.00  0.00     0.176 C 
BRANCH  18  19
ATOM     19  N   UNL     1       4.224  -3.600 -16.270  1.00  0.00    -0.344 N 
ATOM     20  C   UNL     1       4.182  -2.812 -17.398  1.00  0.00     0.217 C 
ATOM     21  O   UNL     1       3.141  -2.515 -17.974  1.00  0.00    -0.275 OA
ATOM     22  C   UNL     1       5.529  -2.326 -17.862  1.00  0.00     0.114 C 
ATOM     23  H   UNL     1       5.012  -3.457 -15.650  1.00  0.00     0.164 HD
ENDBRANCH  18  19
BRANCH  18  24
ATOM     24  C   UNL     1       2.937  -5.515 -15.329  1.00  0.00     0.070 C 
BRANCH  24  25
ATOM     25  C   UNL     1       2.255  -6.325 -16.405  1.00  0.00    -0.045 A 
ATOM     26  C   UNL     1       0.872  -6.551 -16.360  1.00  0.00     0.004 A 
ATOM     27  C   UNL     1       2.994  -6.852 -17.473  1.00  0.00     0.004 A 
ATOM     28  C   UNL     1       0.241  -7.286 -17.365  1.00  0.00     0.000 A 
ATOM     29  C   UNL     1       2.360  -7.586 -18.477  1.00  0.00     0.000 A 
ATOM     30  C   UNL     1       0.985  -7.803 -18.423  1.00  0.00     0.000 A 
ENDBRANCH  24  25
ENDBRANCH  18  24
ENDBRANCH  15  18
ENDBRANCH   9  14
ENDBRANCH   5   8
ENDBRANCH   1   4
BRANCH   1  31
ATOM     31  C   UNL     1      -2.470   0.466  -6.999  1.00  0.00     0.094 A 
ATOM     32  C   UNL     1      -2.694  -0.762  -6.379  1.00  0.00     0.025 A 
ATOM     33  C   UNL     1      -3.538   1.303  -7.314  1.00  0.00     0.110 A 
ATOM     34  C   UNL     1      -4.000  -1.152  -6.062  1.00  0.00     0.034 A 
ATOM     35  C   UNL     1      -4.846   0.904  -6.985  1.00  0.00     0.293 A 
ATOM     36  C   UNL     1      -5.107  -0.320  -6.315  1.00  0.00     0.113 A 
BRANCH  35  37
ATOM     37  N   UNL     1      -5.934   1.837  -7.321  1.00  0.00     0.065 N 
ATOM     38  O   UNL     1      -5.931   2.960  -6.790  1.00  0.00    -0.258 OA
ATOM     39  O   UNL     1      -6.798   1.454  -8.123  1.00  0.00    -0.258 OA
ENDBRANCH  35  37
BRANCH  36  40
ATOM     40  N   UNL     1      -6.404  -0.759  -6.010  1.00  0.00    -0.379 N 
ATOM     41  H   UNL     1      -7.116  -0.185  -6.478  1.00  0.00     0.160 HD
BRANCH  40  42
ATOM     42  C   UNL     1      -6.805  -1.046  -4.627  1.00  0.00     0.124 C 
BRANCH  42  43
ATOM     43  C   UNL     1      -7.218  -2.510  -4.401  1.00  0.00     0.096 C 
BRANCH  43  44
ATOM     44  S   UNL     1      -6.260  -3.366  -3.091  1.00  0.00    -0.124 SA
BRANCH  44  45
ATOM     45  C   UNL     1      -7.435  -3.572  -1.766  1.00  0.00     0.007 A 
ATOM     46  C   UNL     1      -7.609  -2.643  -0.736  1.00  0.00     0.015 A 
ATOM     47  C   UNL     1      -8.267  -4.700  -1.802  1.00  0.00     0.015 A 
ATOM     48  C   UNL     1      -8.559  -2.863   0.267  1.00  0.00     0.001 A 
ATOM     49  C   UNL     1      -9.220  -4.918  -0.803  1.00  0.00     0.001 A 
ATOM     50  C   UNL     1      -9.361  -4.003   0.237  1.00  0.00     0.000 A 
ENDBRANCH  44  45
ENDBRANCH  43  44
ENDBRANCH  42  43
ENDBRANCH  40  42
ENDBRANCH  36  40
ENDBRANCH   1  31
TORSDOF 14
ENDMDL
MODEL 3
REMARK minimizedAffinity -7.53772879
REMARK CNNscore 0.272457331
REMARK CNNaffinity 5.90193605
REMARK SMILES CC(=O)N[C@@H](Cc1ccccc1)C(=O)Nc1ccc(C(=O)NS(=O)(=O)c2ccc(NCCSc3ccccc3)c([N+](=O)[O-])c2)cc1
REMARK SMILES IDX 23 1 24 2 25 3 22 4 20 5 21 6 19 8 16 9 17 10 46 11 18 12
REMARK SMILES IDX 45 13 15 14 13 15 14 16 5 18 4 19 2 20 3 21 1 22 6 24 7 25
REMARK SMILES IDX 8 26 12 27 9 28 11 29 10 30 26 31 27 32 44 33 28 34 40 35
REMARK SMILES IDX 29 36 41 37 42 38 43 39 30 40 31 42 32 43 33 44 34 45 35 46
REMARK SMILES IDX 39 47 36 48 38 49 37 50
REMARK H PARENT 22 7 15 17 4 23 30 41
ROOT
ATOM      1  S   UNL     1      -3.646   4.071  10.211  1.00  0.00     0.264 S 
ATOM      2  O   UNL     1      -3.719   3.758   8.798  1.00  0.00    -0.201 OA
ATOM      3  O   UNL     1      -3.022   3.153  11.134  1.00  0.00    -0.201 OA
ENDROOT
BRANCH   1   4
ATOM      4  N   UNL     1      -2.893   5.550  10.294  1.00  0.00    -0.245 N 
ATOM      5  C   UNL     1      -1.510   5.743  10.230  1.00  0.00     0.264 C 
ATOM      6  O   UNL     1      -0.708   4.826  10.166  1.00  0.00    -0.268 OA
ATOM      7  H   UNL     1      -3.558   6.315  10.275  1.00  0.00     0.183 HD
BRANCH   5   8
ATOM      8  C   UNL     1      -1.049   7.159  10.272  1.00  0.00     0.040 A 
ATOM      9  C   UNL     1      -0.293   9.876  10.390  1.00  0.00     0.041 A 
ATOM     10  C   UNL     1       0.674   8.869  10.382  1.00  0.00     0.027 A 
ATOM     11  C   UNL     1      -1.644   9.514  10.322  1.00  0.00     0.027 A 
ATOM     12  C   UNL     1       0.302   7.519  10.324  1.00  0.00     0.016 A 
ATOM     13  C   UNL     1      -2.019   8.167  10.263  1.00  0.00     0.016 A 
BRANCH   9  14
ATOM     14  N   UNL     1       0.004  11.252  10.447  1.00  0.00    -0.324 N 
ATOM     15  C   UNL     1       0.561  12.035   9.447  1.00  0.00     0.247 C 
ATOM     16  O   UNL     1       0.910  11.651   8.331  1.00  0.00    -0.272 OA
ATOM     17  H   UNL     1      -0.105  11.689  11.354  1.00  0.00     0.170 HD
BRANCH  15  18
ATOM     18  C   UNL     1       0.665  13.525   9.832  1.00  0.00     0.176 C 
BRANCH  18  19
ATOM     19  N   UNL     1      -0.666  14.111   9.691  1.00  0.00    -0.344 N 
ATOM     20  C   UNL     1      -1.056  14.615   8.471  1.00  0.00     0.217 C 
ATOM     21  O   UNL     1      -0.305  14.699   7.505  1.00  0.00    -0.275 OA
ATOM     22  C   UNL     1      -2.498  15.043   8.413  1.00  0.00     0.114 C 
ATOM     23  H   UNL     1      -1.395  13.704  10.265  1.00  0.00     0.164 HD
ENDBRANCH  18  19
BRANCH  18  24
ATOM     24  C   UNL     1       1.190  13.602  11.274  1.00  0.00     0.070 C 
BRANCH  24  25
ATOM     25  C   UNL     1       2.602  14.127  11.365  1.00  0.00    -0.045 A 
ATOM     26  C   UNL     1       3.162  14.859  10.308  1.00  0.00     0.004 A 
ATOM     27  C   UNL     1       3.370  13.901  12.515  1.00  0.00     0.004 A 
ATOM     28  C   UNL     1       4.463  15.358  10.403  1.00  0.00     0.000 A 
ATOM     29  C   UNL     1       4.670  14.402  12.607  1.00  0.00     0.000 A 
ATOM     30  C   UNL     1       5.216  15.129  11.553  1.00  0.00     0.000 A 
ENDBRANCH  24  25
ENDBRANCH  18  24
ENDBRANCH  15  18
ENDBRANCH   9  14
ENDBRANCH   5   8
ENDBRANCH   1   4
BRANCH   1  31
ATOM     31  C   UNL     1      -5.298   4.416  10.753  1.00  0.00     0.094 A 
ATOM     32  C   UNL     1      -6.376   3.889  10.046  1.00  0.00     0.025 A 
ATOM     33  C   UNL     1      -5.506   5.142  11.923  1.00  0.00     0.110 A 
ATOM     34  C   UNL     1      -7.678   4.082  10.522  1.00  0.00     0.034 A 
ATOM     35  C   UNL     1      -6.818   5.325  12.395  1.00  0.00     0.293 A 
ATOM     36  C   UNL     1      -7.937   4.765  11.725  1.00  0.00     0.113 A 
BRANCH  35  37
ATOM     37  N   UNL     1      -6.979   6.081  13.648  1.00  0.00     0.065 N 
ATOM     38  O   UNL     1      -8.128   6.240  14.094  1.00  0.00    -0.258 OA
ATOM     39  O   UNL     1      -5.957   6.516  14.197  1.00  0.00    -0.258 OA
ENDBRANCH  35  37
BRANCH  36  40
ATOM     40  N   UNL     1      -9.259   4.965  12.152  1.00  0.00    -0.379 N 
ATOM     41  H   UNL     1      -9.537   4.267  12.853  1.00  0.00     0.160 HD
BRANCH  40  42
ATOM     42  C   UNL     1     -10.346   5.185  11.189  1.00  0.00     0.124 C 
BRANCH  42  43
ATOM     43  C   UNL     1     -10.224   6.513  10.423  1.00  0.00     0.096 C 
BRANCH  43  44
ATOM     44  S   UNL     1     -10.513   8.003  11.453  1.00  0.00    -0.124 SA
BRANCH  44  45
ATOM     45  C   UNL     1     -10.306   9.358  10.313  1.00  0.00     0.007 A 
ATOM     46  C   UNL     1     -10.513  10.697  10.657  1.00  0.00     0.015 A 
ATOM     47  C   UNL     1      -9.852   9.060   9.020  1.00  0.00     0.015 A 
ATOM     48  C   UNL     1     -10.322  11.712   9.714  1.00  0.00     0.001 A 
ATOM     49  C   UNL     1      -9.656  10.074   8.079  1.00  0.00     0.001 A 
ATOM     50  C   UNL     1      -9.899  11.400   8.423  1.00  0.00     0.000 A 
ENDBRANCH  44  45
ENDBRANCH  43  44
ENDBRANCH  42  43
ENDBRANCH  40  42
ENDBRANCH  36  40
ENDBRANCH   1  31
TORSDOF 14
ENDMDL
MODEL 4
REMARK minimizedAffinity -7.61803865
REMARK CNNscore 0.232754663
REMARK CNNaffinity 6.13258553
REMARK SMILES CC(=O)N[C@@H](Cc1ccccc1)C(=O)Nc1ccc(C(=O)NS(=O)(=O)c2ccc(NCCSc3ccccc3)c([N+](=O)[O-])c2)cc1
REMARK SMILES IDX 23 1 24 2 25 3 22 4 20 5 21 6 19 8 16 9 17 10 46 11 18 12
REMARK SMILES IDX 45 13 15 14 13 15 14 16 5 18 4 19 2 20 3 21 1 22 6 24 7 25
REMARK SMILES IDX 8 26 12 27 9 28 11 29 10 30 26 31 27 32 44 33 28 34 40 35
REMARK SMILES IDX 29 36 41 37 42 38 43 39 30 40 31 42 32 43 33 44 34 45 35 46
REMARK SMILES IDX 39 47 36 48 38 49 37 50
REMARK H PARENT 22 7 15 17 4 23 30 41
ROOT
ATOM      1  S   UNL     1      -3.418   3.997  11.701  1.00  0.00     0.264 S 
ATOM      2  O   UNL     1      -2.962   3.142  10.624  1.00  0.00    -0.201 OA
ATOM      3  O   UNL     1      -3.322   3.562  13.074  1.00  0.00    -0.201 OA
ENDROOT
BRANCH   1   4
ATOM      4  N   UNL     1      -2.593   5.425  11.506  1.00  0.00    -0.245 N 
ATOM      5  C   UNL     1      -1.601   5.647  10.545  1.00  0.00     0.264 C 
ATOM      6  O   UNL     1      -1.198   4.780   9.786  1.00  0.00    -0.268 OA
ATOM      7  H   UNL     1      -2.973   6.166  12.085  1.00  0.00     0.183 HD
BRANCH   5   8
ATOM      8  C   UNL     1      -1.025   7.020  10.511  1.00  0.00     0.040 A 
ATOM      9  C   UNL     1      -0.047   9.668  10.478  1.00  0.00     0.041 A 
ATOM     10  C   UNL     1       0.832   8.587  10.567  1.00  0.00     0.027 A 
ATOM     11  C   UNL     1      -1.421   9.413  10.389  1.00  0.00     0.027 A 
ATOM     12  C   UNL     1       0.350   7.270  10.585  1.00  0.00     0.016 A 
ATOM     13  C   UNL     1      -1.907   8.101  10.405  1.00  0.00     0.016 A 
BRANCH   9  14
ATOM     14  N   UNL     1       0.362  11.016  10.455  1.00  0.00    -0.324 N 
ATOM     15  C   UNL     1       0.918  11.709   9.391  1.00  0.00     0.247 C 
ATOM     16  O   UNL     1       1.165  11.253   8.275  1.00  0.00    -0.272 OA
ATOM     17  H   UNL     1       0.345  11.496  11.347  1.00  0.00     0.170 HD
BRANCH  15  18
ATOM     18  C   UNL     1       1.164  13.200   9.702  1.00  0.00     0.176 C 
BRANCH  18  19
ATOM     19  N   UNL     1       0.138  13.972   9.005  1.00  0.00    -0.344 N 
ATOM     20  C   UNL     1      -1.052  14.241   9.640  1.00  0.00     0.217 C 
ATOM     21  O   UNL     1      -1.352  13.777  10.735  1.00  0.00    -0.275 OA
ATOM     22  C   UNL     1      -1.958  15.175   8.884  1.00  0.00     0.114 C 
ATOM     23  H   UNL     1       0.473  14.676   8.358  1.00  0.00     0.164 HD
ENDBRANCH  18  19
BRANCH  18  24
ATOM     24  C   UNL     1       1.099  13.379  11.226  1.00  0.00     0.070 C 
BRANCH  24  25
ATOM     25  C   UNL     1       2.459  13.491  11.871  1.00  0.00    -0.045 A 
ATOM     26  C   UNL     1       3.344  14.514  11.498  1.00  0.00     0.004 A 
ATOM     27  C   UNL     1       2.853  12.582  12.862  1.00  0.00     0.004 A 
ATOM     28  C   UNL     1       4.594  14.626  12.109  1.00  0.00     0.000 A 
ATOM     29  C   UNL     1       4.104  12.697  13.470  1.00  0.00     0.000 A 
ATOM     30  C   UNL     1       4.974  13.718  13.095  1.00  0.00     0.000 A 
ENDBRANCH  24  25
ENDBRANCH  18  24
ENDBRANCH  15  18
ENDBRANCH   9  14
ENDBRANCH   5   8
ENDBRANCH   1   4
BRANCH   1  31
ATOM     31  C   UNL     1      -5.097   4.436  11.340  1.00  0.00     0.094 A 
ATOM     32  C   UNL     1      -5.732   3.871  10.237  1.00  0.00     0.025 A 
ATOM     33  C   UNL     1      -5.794   5.277  12.204  1.00  0.00     0.110 A 
ATOM     34  C   UNL     1      -7.084   4.144  10.000  1.00  0.00     0.034 A 
ATOM     35  C   UNL     1      -7.154   5.539  11.960  1.00  0.00     0.293 A 
ATOM     36  C   UNL     1      -7.845   4.947  10.870  1.00  0.00     0.113 A 
BRANCH  35  37
ATOM     37  N   UNL     1      -7.849   6.416  12.916  1.00  0.00     0.065 N 
ATOM     38  O   UNL     1      -8.759   7.148  12.489  1.00  0.00    -0.258 OA
ATOM     39  O   UNL     1      -7.494   6.375  14.103  1.00  0.00    -0.258 OA
ENDBRANCH  35  37
BRANCH  36  40
ATOM     40  N   UNL     1      -9.191   5.221  10.582  1.00  0.00    -0.379 N 
ATOM     41  H   UNL     1      -9.821   4.580  11.080  1.00  0.00     0.160 HD
BRANCH  40  42
ATOM     42  C   UNL     1      -9.648   5.419   9.200  1.00  0.00     0.124 C 
BRANCH  42  43
ATOM     43  C   UNL     1      -9.705   6.897   8.780  1.00  0.00     0.096 C 
BRANCH  43  44
ATOM     44  S   UNL     1     -11.173   7.334   7.769  1.00  0.00    -0.124 SA
BRANCH  44  45
ATOM     45  C   UNL     1     -10.501   7.626   6.144  1.00  0.00     0.007 A 
ATOM     46  C   UNL     1      -9.358   8.395   5.907  1.00  0.00     0.015 A 
ATOM     47  C   UNL     1     -11.123   6.996   5.057  1.00  0.00     0.015 A 
ATOM     48  C   UNL     1      -8.878   8.575   4.605  1.00  0.00     0.001 A 
ATOM     49  C   UNL     1     -10.642   7.170   3.757  1.00  0.00     0.001 A 
ATOM     50  C   UNL     1      -9.523   7.967   3.529  1.00  0.00     0.000 A 
ENDBRANCH  44  45
ENDBRANCH  43  44
ENDBRANCH  42  43
ENDBRANCH  40  42
ENDBRANCH  36  40
ENDBRANCH   1  31
TORSDOF 14
ENDMDL
MODEL 5
REMARK minimizedAffinity -6.11963654
REMARK CNNscore 0.197589204
REMARK CNNaffinity 5.30836487
REMARK SMILES CC(=O)N[C@@H](Cc1ccccc1)C(=O)Nc1ccc(C(=O)NS(=O)(=O)c2ccc(NCCSc3ccccc3)c([N+](=O)[O-])c2)cc1
REMARK SMILES IDX 23 1 24 2 25 3 22 4 20 5 21 6 19 8 16 9 17 10 46 11 18 12
REMARK SMILES IDX 45 13 15 14 13 15 14 16 5 18 4 19 2 20 3 21 1 22 6 24 7 25
REMARK SMILES IDX 8 26 12 27 9 28 11 29 10 30 26 31 27 32 44 33 28 34 40 35
REMARK SMILES IDX 29 36 41 37 42 38 43 39 30 40 31 42 32 43 33 44 34 45 35 46
REMARK SMILES IDX 39 47 36 48 38 49 37 50
REMARK H PARENT 22 7 15 17 4 23 30 41
ROOT
ATOM      1  S   UNL     1      -4.714 -24.140   6.891  1.00  0.00     0.264 S 
ATOM      2  O   UNL     1      -5.787 -24.741   7.656  1.00  0.00    -0.201 OA
ATOM      3  O   UNL     1      -3.852 -24.956   6.069  1.00  0.00    -0.201 OA
ENDROOT
BRANCH   1   4
ATOM      4  N   UNL     1      -5.441 -22.974   5.957  1.00  0.00    -0.245 N 
ATOM      5  C   UNL     1      -6.318 -23.235   4.899  1.00  0.00     0.264 C 
ATOM      6  O   UNL     1      -6.589 -24.361   4.516  1.00  0.00    -0.268 OA
ATOM      7  H   UNL     1      -5.274 -22.041   6.316  1.00  0.00     0.183 HD
BRANCH   5   8
ATOM      8  C   UNL     1      -6.897 -22.039   4.226  1.00  0.00     0.040 A 
ATOM      9  C   UNL     1      -7.885 -19.755   2.892  1.00  0.00     0.041 A 
ATOM     10  C   UNL     1      -8.762 -20.684   3.455  1.00  0.00     0.027 A 
ATOM     11  C   UNL     1      -6.506 -19.969   3.016  1.00  0.00     0.027 A 
ATOM     12  C   UNL     1      -8.275 -21.820   4.117  1.00  0.00     0.016 A 
ATOM     13  C   UNL     1      -6.016 -21.100   3.677  1.00  0.00     0.016 A 
BRANCH   9  14
ATOM     14  N   UNL     1      -8.299 -18.593   2.213  1.00  0.00    -0.324 N 
ATOM     15  C   UNL     1      -8.972 -18.519   1.003  1.00  0.00     0.247 C 
ATOM     16  O   UNL     1      -9.313 -19.471   0.301  1.00  0.00    -0.272 OA
ATOM     17  H   UNL     1      -7.973 -17.716   2.602  1.00  0.00     0.170 HD
BRANCH  15  18
ATOM     18  C   UNL     1      -9.341 -17.076   0.602  1.00  0.00     0.176 C 
BRANCH  18  19
ATOM     19  N   UNL     1      -9.372 -16.273   1.823  1.00  0.00    -0.344 N 
ATOM     20  C   UNL     1     -10.567 -15.740   2.250  1.00  0.00     0.217 C 
ATOM     21  O   UNL     1     -11.606 -15.810   1.603  1.00  0.00    -0.275 OA
ATOM     22  C   UNL     1     -10.498 -15.072   3.597  1.00  0.00     0.114 C 
ATOM     23  H   UNL     1      -8.711 -16.535   2.545  1.00  0.00     0.164 HD
ENDBRANCH  18  19
BRANCH  18  24
ATOM     24  C   UNL     1      -8.285 -16.581  -0.397  1.00  0.00     0.070 C 
BRANCH  24  25
ATOM     25  C   UNL     1      -8.873 -16.156  -1.721  1.00  0.00    -0.045 A 
ATOM     26  C   UNL     1     -10.245 -16.300  -1.973  1.00  0.00     0.004 A 
ATOM     27  C   UNL     1      -8.056 -15.597  -2.714  1.00  0.00     0.004 A 
ATOM     28  C   UNL     1     -10.788 -15.889  -3.192  1.00  0.00     0.000 A 
ATOM     29  C   UNL     1      -8.603 -15.187  -3.931  1.00  0.00     0.000 A 
ATOM     30  C   UNL     1      -9.967 -15.333  -4.170  1.00  0.00     0.000 A 
ENDBRANCH  24  25
ENDBRANCH  18  24
ENDBRANCH  15  18
ENDBRANCH   9  14
ENDBRANCH   5   8
ENDBRANCH   1   4
BRANCH   1  31
ATOM     31  C   UNL     1      -3.726 -23.204   8.027  1.00  0.00     0.094 A 
ATOM     32  C   UNL     1      -2.572 -23.770   8.560  1.00  0.00     0.025 A 
ATOM     33  C   UNL     1      -4.065 -21.884   8.315  1.00  0.00     0.110 A 
ATOM     34  C   UNL     1      -1.740 -23.004   9.386  1.00  0.00     0.034 A 
ATOM     35  C   UNL     1      -3.219 -21.121   9.140  1.00  0.00     0.293 A 
ATOM     36  C   UNL     1      -2.013 -21.652   9.667  1.00  0.00     0.113 A 
BRANCH  35  37
ATOM     37  N   UNL     1      -3.613 -19.726   9.395  1.00  0.00     0.065 N 
ATOM     38  O   UNL     1      -4.825 -19.458   9.452  1.00  0.00    -0.258 OA
ATOM     39  O   UNL     1      -2.711 -18.888   9.546  1.00  0.00    -0.258 OA
ENDBRANCH  35  37
BRANCH  36  40
ATOM     40  N   UNL     1      -1.171 -20.926  10.523  1.00  0.00    -0.379 N 
ATOM     41  H   UNL     1      -0.300 -20.652  10.052  1.00  0.00     0.160 HD
BRANCH  40  42
ATOM     42  C   UNL     1      -0.891 -21.391  11.888  1.00  0.00     0.124 C 
BRANCH  42  43
ATOM     43  C   UNL     1       0.407 -22.207  12.002  1.00  0.00     0.096 C 
BRANCH  43  44
ATOM     44  S   UNL     1       1.646 -21.491  13.150  1.00  0.00    -0.124 SA
BRANCH  44  45
ATOM     45  C   UNL     1       2.982 -22.672  13.129  1.00  0.00     0.007 A 
ATOM     46  C   UNL     1       3.816 -22.877  12.026  1.00  0.00     0.015 A 
ATOM     47  C   UNL     1       3.240 -23.385  14.308  1.00  0.00     0.015 A 
ATOM     48  C   UNL     1       4.853 -23.814  12.082  1.00  0.00     0.001 A 
ATOM     49  C   UNL     1       4.280 -24.317  14.367  1.00  0.00     0.001 A 
ATOM     50  C   UNL     1       5.082 -24.538  13.251  1.00  0.00     0.000 A 
ENDBRANCH  44  45
ENDBRANCH  43  44
ENDBRANCH  42  43
ENDBRANCH  40  42
ENDBRANCH  36  40
ENDBRANCH   1  31
TORSDOF 14
ENDMDL
MODEL 6
REMARK minimizedAffinity -6.05763006
REMARK CNNscore 0.183941305
REMARK CNNaffinity 5.30670357
REMARK SMILES CC(=O)N[C@@H](Cc1ccccc1)C(=O)Nc1ccc(C(=O)NS(=O)(=O)c2ccc(NCCSc3ccccc3)c([N+](=O)[O-])c2)cc1
REMARK SMILES IDX 23 1 24 2 25 3 22 4 20 5 21 6 19 8 16 9 17 10 46 11 18 12
REMARK SMILES IDX 45 13 15 14 13 15 14 16 5 18 4 19 2 20 3 21 1 22 6 24 7 25
REMARK SMILES IDX 8 26 12 27 9 28 11 29 10 30 26 31 27 32 44 33 28 34 40 35
REMARK SMILES IDX 29 36 41 37 42 38 43 39 30 40 31 42 32 43 33 44 34 45 35 46
REMARK SMILES IDX 39 47 36 48 38 49 37 50
REMARK H PARENT 22 7 15 17 4 23 30 41
ROOT
ATOM      1  S   UNL     1      -3.244  -1.152  -8.067  1.00  0.00     0.264 S 
ATOM      2  O   UNL     1      -4.474  -0.638  -8.634  1.00  0.00    -0.201 OA
ATOM      3  O   UNL     1      -3.274  -2.214  -7.090  1.00  0.00    -0.201 OA
ENDROOT
BRANCH   1   4
ATOM      4  N   UNL     1      -2.321  -1.613  -9.369  1.00  0.00    -0.245 N 
ATOM      5  C   UNL     1      -2.288  -0.945 -10.598  1.00  0.00     0.264 C 
ATOM      6  O   UNL     1      -2.991   0.019 -10.855  1.00  0.00    -0.268 OA
ATOM      7  H   UNL     1      -1.686  -2.368  -9.136  1.00  0.00     0.183 HD
BRANCH   5   8
ATOM      8  C   UNL     1      -1.350  -1.499 -11.614  1.00  0.00     0.040 A 
ATOM      9  C   UNL     1       0.523  -2.528 -13.457  1.00  0.00     0.041 A 
ATOM     10  C   UNL     1      -0.834  -2.827 -13.582  1.00  0.00     0.027 A 
ATOM     11  C   UNL     1       0.936  -1.695 -12.410  1.00  0.00     0.027 A 
ATOM     12  C   UNL     1      -1.768  -2.319 -12.668  1.00  0.00     0.016 A 
ATOM     13  C   UNL     1       0.008  -1.184 -11.496  1.00  0.00     0.016 A 
BRANCH   9  14
ATOM     14  N   UNL     1       1.518  -3.001 -14.336  1.00  0.00    -0.324 N 
ATOM     15  C   UNL     1       2.038  -2.353 -15.446  1.00  0.00     0.247 C 
ATOM     16  O   UNL     1       1.703  -1.245 -15.866  1.00  0.00    -0.272 OA
ATOM     17  H   UNL     1       1.804  -3.963 -14.200  1.00  0.00     0.170 HD
BRANCH  15  18
ATOM     18  C   UNL     1       3.179  -3.138 -16.126  1.00  0.00     0.176 C 
BRANCH  18  19
ATOM     19  N   UNL     1       4.395  -2.335 -16.013  1.00  0.00    -0.344 N 
ATOM     20  C   UNL     1       5.051  -2.270 -14.804  1.00  0.00     0.217 C 
ATOM     21  O   UNL     1       4.613  -2.767 -13.772  1.00  0.00    -0.275 OA
ATOM     22  C   UNL     1       6.370  -1.547 -14.856  1.00  0.00     0.114 C 
ATOM     23  H   UNL     1       4.974  -2.284 -16.843  1.00  0.00     0.164 HD
ENDBRANCH  18  19
BRANCH  18  24
ATOM     24  C   UNL     1       3.303  -4.494 -15.417  1.00  0.00     0.070 C 
BRANCH  24  25
ATOM     25  C   UNL     1       3.026  -5.668 -16.325  1.00  0.00    -0.045 A 
ATOM     26  C   UNL     1       4.080  -6.381 -16.913  1.00  0.00     0.004 A 
ATOM     27  C   UNL     1       1.708  -6.069 -16.584  1.00  0.00     0.004 A 
ATOM     28  C   UNL     1       3.820  -7.477 -17.738  1.00  0.00     0.000 A 
ATOM     29  C   UNL     1       1.452  -7.165 -17.410  1.00  0.00     0.000 A 
ATOM     30  C   UNL     1       2.506  -7.868 -17.986  1.00  0.00     0.000 A 
ENDBRANCH  24  25
ENDBRANCH  18  24
ENDBRANCH  15  18
ENDBRANCH   9  14
ENDBRANCH   5   8
ENDBRANCH   1   4
BRANCH   1  31
ATOM     31  C   UNL     1      -2.360   0.233  -7.402  1.00  0.00     0.094 A 
ATOM     32  C   UNL     1      -2.646   1.515  -7.862  1.00  0.00     0.025 A 
ATOM     33  C   UNL     1      -1.445   0.040  -6.370  1.00  0.00     0.110 A 
ATOM     34  C   UNL     1      -2.017   2.620  -7.276  1.00  0.00     0.034 A 
ATOM     35  C   UNL     1      -0.823   1.157  -5.784  1.00  0.00     0.293 A 
ATOM     36  C   UNL     1      -1.123   2.481  -6.198  1.00  0.00     0.113 A 
BRANCH  35  37
ATOM     37  N   UNL     1       0.119   0.898  -4.682  1.00  0.00     0.065 N 
ATOM     38  O   UNL     1       1.053   0.102  -4.882  1.00  0.00    -0.258 OA
ATOM     39  O   UNL     1      -0.065   1.493  -3.611  1.00  0.00    -0.258 OA
ENDBRANCH  35  37
BRANCH  36  40
ATOM     40  N   UNL     1      -0.489   3.610  -5.657  1.00  0.00    -0.379 N 
ATOM     41  H   UNL     1      -0.490   3.587  -4.630  1.00  0.00     0.160 HD
BRANCH  40  42
ATOM     42  C   UNL     1      -0.800   4.962  -6.140  1.00  0.00     0.124 C 
BRANCH  42  43
ATOM     43  C   UNL     1      -1.907   5.660  -5.332  1.00  0.00     0.096 C 
BRANCH  43  44
ATOM     44  S   UNL     1      -2.528   7.209  -6.093  1.00  0.00    -0.124 SA
BRANCH  44  45
ATOM     45  C   UNL     1      -4.079   7.502  -5.262  1.00  0.00     0.007 A 
ATOM     46  C   UNL     1      -4.795   8.698  -5.361  1.00  0.00     0.015 A 
ATOM     47  C   UNL     1      -4.632   6.447  -4.523  1.00  0.00     0.015 A 
ATOM     48  C   UNL     1      -6.013   8.855  -4.691  1.00  0.00     0.001 A 
ATOM     49  C   UNL     1      -5.851   6.601  -3.857  1.00  0.00     0.001 A 
ATOM     50  C   UNL     1      -6.538   7.809  -3.935  1.00  0.00     0.000 A 
ENDBRANCH  44  45
ENDBRANCH  43  44
ENDBRANCH  42  43
ENDBRANCH  40  42
ENDBRANCH  36  40
ENDBRANCH   1  31
TORSDOF 14
ENDMDL
MODEL 7
REMARK minimizedAffinity -6.31538534
REMARK CNNscore 0.176762402
REMARK CNNaffinity 5.0149498
REMARK SMILES CC(=O)N[C@@H](Cc1ccccc1)C(=O)Nc1ccc(C(=O)NS(=O)(=O)c2ccc(NCCSc3ccccc3)c([N+](=O)[O-])c2)cc1
REMARK SMILES IDX 23 1 24 2 25 3 22 4 20 5 21 6 19 8 16 9 17 10 46 11 18 12
REMARK SMILES IDX 45 13 15 14 13 15 14 16 5 18 4 19 2 20 3 21 1 22 6 24 7 25
REMARK SMILES IDX 8 26 12 27 9 28 11 29 10 30 26 31 27 32 44 33 28 34 40 35
REMARK SMILES IDX 29 36 41 37 42 38 43 39 30 40 31 42 32 43 33 44 34 45 35 46
REMARK SMILES IDX 39 47 36 48 38 49 37 50
REMARK H PARENT 22 7 15 17 4 23 30 41
ROOT
ATOM      1  S   UNL     1       0.624  -2.722 -12.845  1.00  0.00     0.264 S 
ATOM      2  O   UNL     1      -0.064  -2.480 -14.097  1.00  0.00    -0.201 OA
ATOM      3  O   UNL     1       0.931  -4.068 -12.424  1.00  0.00    -0.201 OA
ENDROOT
BRANCH   1   4
ATOM      4  N   UNL     1       2.022  -1.829 -12.934  1.00  0.00    -0.245 N 
ATOM      5  C   UNL     1       3.192  -2.245 -13.578  1.00  0.00     0.264 C 
ATOM      6  O   UNL     1       3.318  -3.344 -14.093  1.00  0.00    -0.268 OA
ATOM      7  H   UNL     1       1.898  -0.891 -12.570  1.00  0.00     0.183 HD
BRANCH   5   8
ATOM      8  C   UNL     1       4.315  -1.266 -13.582  1.00  0.00     0.040 A 
ATOM      9  C   UNL     1       6.356   0.683 -13.579  1.00  0.00     0.041 A 
ATOM     10  C   UNL     1       6.648  -0.651 -13.292  1.00  0.00     0.027 A 
ATOM     11  C   UNL     1       5.036   1.034 -13.884  1.00  0.00     0.027 A 
ATOM     12  C   UNL     1       5.636  -1.622 -13.292  1.00  0.00     0.016 A 
ATOM     13  C   UNL     1       4.023   0.069 -13.886  1.00  0.00     0.016 A 
BRANCH   9  14
ATOM     14  N   UNL     1       7.318   1.713 -13.598  1.00  0.00    -0.324 N 
ATOM     15  C   UNL     1       7.503   2.710 -12.653  1.00  0.00     0.247 C 
ATOM     16  O   UNL     1       6.837   2.877 -11.631  1.00  0.00    -0.272 OA
ATOM     17  H   UNL     1       7.862   1.791 -14.449  1.00  0.00     0.170 HD
BRANCH  15  18
ATOM     18  C   UNL     1       8.712   3.618 -12.959  1.00  0.00     0.176 C 
BRANCH  18  19
ATOM     19  N   UNL     1       8.228   4.744 -13.755  1.00  0.00    -0.344 N 
ATOM     20  C   UNL     1       8.596   6.024 -13.409  1.00  0.00     0.217 C 
ATOM     21  O   UNL     1       9.230   6.291 -12.394  1.00  0.00    -0.275 OA
ATOM     22  C   UNL     1       8.168   7.077 -14.395  1.00  0.00     0.114 C 
ATOM     23  H   UNL     1       8.095   4.565 -14.744  1.00  0.00     0.164 HD
ENDBRANCH  18  19
BRANCH  18  24
ATOM     24  C   UNL     1       9.316   4.064 -11.619  1.00  0.00     0.070 C 
BRANCH  24  25
ATOM     25  C   UNL     1      10.645   3.415 -11.320  1.00  0.00    -0.045 A 
ATOM     26  C   UNL     1      10.705   2.179 -10.662  1.00  0.00     0.004 A 
ATOM     27  C   UNL     1      11.841   4.034 -11.709  1.00  0.00     0.004 A 
ATOM     28  C   UNL     1      11.936   1.573 -10.403  1.00  0.00     0.000 A 
ATOM     29  C   UNL     1      13.070   3.426 -11.448  1.00  0.00     0.000 A 
ATOM     30  C   UNL     1      13.118   2.197 -10.796  1.00  0.00     0.000 A 
ENDBRANCH  24  25
ENDBRANCH  18  24
ENDBRANCH  15  18
ENDBRANCH   9  14
ENDBRANCH   5   8
ENDBRANCH   1   4
BRANCH   1  31
ATOM     31  C   UNL     1      -0.306  -1.908 -11.575  1.00  0.00     0.094 A 
ATOM     32  C   UNL     1      -0.253  -0.520 -11.467  1.00  0.00     0.025 A 
ATOM     33  C   UNL     1      -1.145  -2.649 -10.746  1.00  0.00     0.110 A 
ATOM     34  C   UNL     1      -1.055   0.135 -10.526  1.00  0.00     0.034 A 
ATOM     35  C   UNL     1      -1.952  -1.981  -9.808  1.00  0.00     0.293 A 
ATOM     36  C   UNL     1      -1.955  -0.565  -9.700  1.00  0.00     0.113 A 
BRANCH  35  37
ATOM     37  N   UNL     1      -2.835  -2.811  -8.973  1.00  0.00     0.065 N 
ATOM     38  O   UNL     1      -2.862  -2.594  -7.749  1.00  0.00    -0.258 OA
ATOM     39  O   UNL     1      -3.514  -3.682  -9.536  1.00  0.00    -0.258 OA
ENDBRANCH  35  37
BRANCH  36  40
ATOM     40  N   UNL     1      -2.721   0.124  -8.747  1.00  0.00    -0.379 N 
ATOM     41  H   UNL     1      -3.199   0.933  -9.162  1.00  0.00     0.160 HD
BRANCH  40  42
ATOM     42  C   UNL     1      -2.164   0.476  -7.434  1.00  0.00     0.124 C 
BRANCH  42  43
ATOM     43  C   UNL     1      -3.236   0.689  -6.353  1.00  0.00     0.096 C 
BRANCH  43  44
ATOM     44  S   UNL     1      -4.959   0.607  -6.978  1.00  0.00    -0.124 SA
BRANCH  44  45
ATOM     45  C   UNL     1      -5.865  -0.145  -5.638  1.00  0.00     0.007 A 
ATOM     46  C   UNL     1      -5.690  -1.472  -5.235  1.00  0.00     0.015 A 
ATOM     47  C   UNL     1      -6.753   0.665  -4.916  1.00  0.00     0.015 A 
ATOM     48  C   UNL     1      -6.426  -1.995  -4.167  1.00  0.00     0.001 A 
ATOM     49  C   UNL     1      -7.485   0.145  -3.845  1.00  0.00     0.001 A 
ATOM     50  C   UNL     1      -7.328  -1.188  -3.476  1.00  0.00     0.000 A 
ENDBRANCH  44  45
ENDBRANCH  43  44
ENDBRANCH  42  43
ENDBRANCH  40  42
ENDBRANCH  36  40
ENDBRANCH   1  31
TORSDOF 14
ENDMDL
MODEL 8
REMARK minimizedAffinity -6.11062527
REMARK CNNscore 0.164001435
REMARK CNNaffinity 5.21789122
REMARK SMILES CC(=O)N[C@@H](Cc1ccccc1)C(=O)Nc1ccc(C(=O)NS(=O)(=O)c2ccc(NCCSc3ccccc3)c([N+](=O)[O-])c2)cc1
REMARK SMILES IDX 23 1 24 2 25 3 22 4 20 5 21 6 19 8 16 9 17 10 46 11 18 12
REMARK SMILES IDX 45 13 15 14 13 15 14 16 5 18 4 19 2 20 3 21 1 22 6 24 7 25
REMARK SMILES IDX 8 26 12 27 9 28 11 29 10 30 26 31 27 32 44 33 28 34 40 35
REMARK SMILES IDX 29 36 41 37 42 38 43 39 30 40 31 42 32 43 33 44 34 45 35 46
REMARK SMILES IDX 39 47 36 48 38 49 37 50
REMARK H PARENT 22 7 15 17 4 23 30 41
ROOT
ATOM      1  S   UNL     1      -0.310   2.399  -8.154  1.00  0.00     0.264 S 
ATOM      2  O   UNL     1       0.374   1.906  -6.977  1.00  0.00    -0.201 OA
ATOM      3  O   UNL     1       0.427   3.046  -9.214  1.00  0.00    -0.201 OA
ENDROOT
BRANCH   1   4
ATOM      4  N   UNL     1      -1.135   1.092  -8.762  1.00  0.00    -0.245 N 
ATOM      5  C   UNL     1      -1.800   0.139  -7.983  1.00  0.00     0.264 C 
ATOM      6  O   UNL     1      -1.786   0.144  -6.763  1.00  0.00    -0.268 OA
ATOM      7  H   UNL     1      -1.208   1.124  -9.772  1.00  0.00     0.183 HD
BRANCH   5   8
ATOM      8  C   UNL     1      -2.521  -0.926  -8.735  1.00  0.00     0.040 A 
ATOM      9  C   UNL     1      -3.779  -3.009 -10.165  1.00  0.00     0.041 A 
ATOM     10  C   UNL     1      -4.536  -2.090  -9.436  1.00  0.00     0.027 A 
ATOM     11  C   UNL     1      -2.386  -2.869 -10.187  1.00  0.00     0.027 A 
ATOM     12  C   UNL     1      -3.915  -1.054  -8.724  1.00  0.00     0.016 A 
ATOM     13  C   UNL     1      -1.762  -1.836  -9.479  1.00  0.00     0.016 A 
BRANCH   9  14
ATOM     14  N   UNL     1      -4.332  -4.073 -10.905  1.00  0.00    -0.324 N 
ATOM     15  C   UNL     1      -5.031  -3.995 -12.099  1.00  0.00     0.247 C 
ATOM     16  O   UNL     1      -5.305  -2.966 -12.716  1.00  0.00    -0.272 OA
ATOM     17  H   UNL     1      -4.306  -4.981 -10.456  1.00  0.00     0.170 HD
BRANCH  15  18
ATOM     18  C   UNL     1      -5.415  -5.377 -12.668  1.00  0.00     0.176 C 
BRANCH  18  19
ATOM     19  N   UNL     1      -4.493  -5.676 -13.760  1.00  0.00    -0.344 N 
ATOM     20  C   UNL     1      -3.988  -6.951 -13.889  1.00  0.00     0.217 C 
ATOM     21  O   UNL     1      -4.187  -7.840 -13.068  1.00  0.00    -0.275 OA
ATOM     22  C   UNL     1      -3.181  -7.172 -15.139  1.00  0.00     0.114 C 
ATOM     23  H   UNL     1      -4.638  -5.160 -14.620  1.00  0.00     0.164 HD
ENDBRANCH  18  19
BRANCH  18  24
ATOM     24  C   UNL     1      -5.321  -6.398 -11.524  1.00  0.00     0.070 C 
BRANCH  24  25
ATOM     25  C   UNL     1      -6.648  -7.031 -11.182  1.00  0.00    -0.045 A 
ATOM     26  C   UNL     1      -6.780  -7.842 -10.046  1.00  0.00     0.004 A 
ATOM     27  C   UNL     1      -7.772  -6.806 -11.988  1.00  0.00     0.004 A 
ATOM     28  C   UNL     1      -8.013  -8.412  -9.722  1.00  0.00     0.000 A 
ATOM     29  C   UNL     1      -9.003  -7.377 -11.662  1.00  0.00     0.000 A 
ATOM     30  C   UNL     1      -9.124  -8.179 -10.530  1.00  0.00     0.000 A 
ENDBRANCH  24  25
ENDBRANCH  18  24
ENDBRANCH  15  18
ENDBRANCH   9  14
ENDBRANCH   5   8
ENDBRANCH   1   4
BRANCH   1  31
ATOM     31  C   UNL     1      -1.599   3.478  -7.593  1.00  0.00     0.094 A 
ATOM     32  C   UNL     1      -1.329   4.407  -6.591  1.00  0.00     0.025 A 
ATOM     33  C   UNL     1      -2.847   3.446  -8.210  1.00  0.00     0.110 A 
ATOM     34  C   UNL     1      -2.316   5.322  -6.208  1.00  0.00     0.034 A 
ATOM     35  C   UNL     1      -3.830   4.375  -7.822  1.00  0.00     0.293 A 
ATOM     36  C   UNL     1      -3.576   5.363  -6.835  1.00  0.00     0.113 A 
BRANCH  35  37
ATOM     37  N   UNL     1      -5.124   4.311  -8.522  1.00  0.00     0.065 N 
ATOM     38  O   UNL     1      -5.134   4.468  -9.755  1.00  0.00    -0.258 OA
ATOM     39  O   UNL     1      -6.139   4.099  -7.843  1.00  0.00    -0.258 OA
ENDBRANCH  35  37
BRANCH  36  40
ATOM     40  N   UNL     1      -4.551   6.275  -6.402  1.00  0.00    -0.379 N 
ATOM     41  H   UNL     1      -5.292   6.395  -7.103  1.00  0.00     0.160 HD
BRANCH  40  42
ATOM     42  C   UNL     1      -4.175   7.573  -5.825  1.00  0.00     0.124 C 
BRANCH  42  43
ATOM     43  C   UNL     1      -4.948   7.918  -4.542  1.00  0.00     0.096 C 
BRANCH  43  44
ATOM     44  S   UNL     1      -6.772   7.796  -4.708  1.00  0.00    -0.124 SA
BRANCH  44  45
ATOM     45  C   UNL     1      -7.316   7.291  -3.087  1.00  0.00     0.007 A 
ATOM     46  C   UNL     1      -8.208   6.238  -2.864  1.00  0.00     0.015 A 
ATOM     47  C   UNL     1      -6.766   7.951  -1.979  1.00  0.00     0.015 A 
ATOM     48  C   UNL     1      -8.585   5.887  -1.563  1.00  0.00     0.001 A 
ATOM     49  C   UNL     1      -7.137   7.598  -0.678  1.00  0.00     0.001 A 
ATOM     50  C   UNL     1      -8.054   6.571  -0.471  1.00  0.00     0.000 A 
ENDBRANCH  44  45
ENDBRANCH  43  44
ENDBRANCH  42  43
ENDBRANCH  40  42
ENDBRANCH  36  40
ENDBRANCH   1  31
TORSDOF 14
ENDMDL
MODEL 9
REMARK minimizedAffinity -7.47768545
REMARK CNNscore 0.163678169
REMARK CNNaffinity 5.17959356
REMARK SMILES CC(=O)N[C@@H](Cc1ccccc1)C(=O)Nc1ccc(C(=O)NS(=O)(=O)c2ccc(NCCSc3ccccc3)c([N+](=O)[O-])c2)cc1
REMARK SMILES IDX 23 1 24 2 25 3 22 4 20 5 21 6 19 8 16 9 17 10 46 11 18 12
REMARK SMILES IDX 45 13 15 14 13 15 14 16 5 18 4 19 2 20 3 21 1 22 6 24 7 25
REMARK SMILES IDX 8 26 12 27 9 28 11 29 10 30 26 31 27 32 44 33 28 34 40 35
REMARK SMILES IDX 29 36 41 37 42 38 43 39 30 40 31 42 32 43 33 44 34 45 35 46
REMARK SMILES IDX 39 47 36 48 38 49 37 50
REMARK H PARENT 22 7 15 17 4 23 30 41
ROOT
ATOM      1  S   UNL     1      -8.585   1.776   9.224  1.00  0.00     0.264 S 
ATOM      2  O   UNL     1      -7.296   2.411   9.038  1.00  0.00    -0.201 OA
ATOM      3  O   UNL     1      -9.705   2.525   9.743  1.00  0.00    -0.201 OA
ENDROOT
BRANCH   1   4
ATOM      4  N   UNL     1      -8.976   1.136   7.742  1.00  0.00    -0.245 N 
ATOM      5  C   UNL     1      -9.599   1.843   6.709  1.00  0.00     0.264 C 
ATOM      6  O   UNL     1      -9.974   2.999   6.820  1.00  0.00    -0.268 OA
ATOM      7  H   UNL     1      -8.604   0.200   7.622  1.00  0.00     0.183 HD
BRANCH   5   8
ATOM      8  C   UNL     1      -9.813   1.089   5.442  1.00  0.00     0.040 A 
ATOM      9  C   UNL     1     -10.127  -0.421   3.078  1.00  0.00     0.041 A 
ATOM     10  C   UNL     1     -11.126   0.459   3.497  1.00  0.00     0.027 A 
ATOM     11  C   UNL     1      -8.960  -0.529   3.844  1.00  0.00     0.027 A 
ATOM     12  C   UNL     1     -10.974   1.210   4.671  1.00  0.00     0.016 A 
ATOM     13  C   UNL     1      -8.803   0.220   5.015  1.00  0.00     0.016 A 
BRANCH   9  14
ATOM     14  N   UNL     1     -10.209  -1.208   1.912  1.00  0.00    -0.324 N 
ATOM     15  C   UNL     1      -9.290  -2.143   1.461  1.00  0.00     0.247 C 
ATOM     16  O   UNL     1      -8.225  -2.437   2.004  1.00  0.00    -0.272 OA
ATOM     17  H   UNL     1     -10.971  -0.985   1.283  1.00  0.00     0.170 HD
BRANCH  15  18
ATOM     18  C   UNL     1      -9.751  -2.879   0.186  1.00  0.00     0.176 C 
BRANCH  18  19
ATOM     19  N   UNL     1      -9.596  -1.955  -0.936  1.00  0.00    -0.344 N 
ATOM     20  C   UNL     1     -10.712  -1.531  -1.621  1.00  0.00     0.217 C 
ATOM     21  O   UNL     1     -11.838  -1.969  -1.411  1.00  0.00    -0.275 OA
ATOM     22  C   UNL     1     -10.438  -0.464  -2.646  1.00  0.00     0.114 C 
ATOM     23  H   UNL     1      -8.832  -1.294  -0.866  1.00  0.00     0.164 HD
ENDBRANCH  18  19
BRANCH  18  24
ATOM     24  C   UNL     1      -8.887  -4.139   0.032  1.00  0.00     0.070 C 
BRANCH  24  25
ATOM     25  C   UNL     1      -8.566  -4.467  -1.406  1.00  0.00    -0.045 A 
ATOM     26  C   UNL     1      -9.491  -5.151  -2.207  1.00  0.00     0.004 A 
ATOM     27  C   UNL     1      -7.340  -4.081  -1.965  1.00  0.00     0.004 A 
ATOM     28  C   UNL     1      -9.198  -5.438  -3.541  1.00  0.00     0.000 A 
ATOM     29  C   UNL     1      -7.050  -4.370  -3.300  1.00  0.00     0.000 A 
ATOM     30  C   UNL     1      -7.977  -5.047  -4.088  1.00  0.00     0.000 A 
ENDBRANCH  24  25
ENDBRANCH  18  24
ENDBRANCH  15  18
ENDBRANCH   9  14
ENDBRANCH   5   8
ENDBRANCH   1   4
BRANCH   1  31
ATOM     31  C   UNL     1      -8.317   0.345  10.235  1.00  0.00     0.094 A 
ATOM     32  C   UNL     1      -7.881   0.505  11.548  1.00  0.00     0.025 A 
ATOM     33  C   UNL     1      -8.621  -0.920   9.740  1.00  0.00     0.110 A 
ATOM     34  C   UNL     1      -7.755  -0.615  12.379  1.00  0.00     0.034 A 
ATOM     35  C   UNL     1      -8.498  -2.038  10.585  1.00  0.00     0.293 A 
ATOM     36  C   UNL     1      -8.097  -1.908  11.941  1.00  0.00     0.113 A 
BRANCH  35  37
ATOM     37  N   UNL     1      -8.853  -3.349  10.018  1.00  0.00     0.065 N 
ATOM     38  O   UNL     1      -9.967  -3.475   9.481  1.00  0.00    -0.258 OA
ATOM     39  O   UNL     1      -8.017  -4.261  10.099  1.00  0.00    -0.258 OA
ENDBRANCH  35  37
BRANCH  36  40
ATOM     40  N   UNL     1      -7.929  -3.010  12.794  1.00  0.00    -0.379 N 
ATOM     41  H   UNL     1      -8.697  -3.081  13.473  1.00  0.00     0.160 HD
BRANCH  40  42
ATOM     42  C   UNL     1      -6.641  -3.276  13.448  1.00  0.00     0.124 C 
BRANCH  42  43
ATOM     43  C   UNL     1      -5.491  -3.522  12.457  1.00  0.00     0.096 C 
BRANCH  43  44
ATOM     44  S   UNL     1      -5.056  -5.290  12.236  1.00  0.00    -0.124 SA
BRANCH  44  45
ATOM     45  C   UNL     1      -4.046  -5.663  13.658  1.00  0.00     0.007 A 
ATOM     46  C   UNL     1      -2.867  -4.980  13.969  1.00  0.00     0.015 A 
ATOM     47  C   UNL     1      -4.501  -6.655  14.539  1.00  0.00     0.015 A 
ATOM     48  C   UNL     1      -2.129  -5.317  15.109  1.00  0.00     0.001 A 
ATOM     49  C   UNL     1      -3.767  -6.989  15.680  1.00  0.00     0.001 A 
ATOM     50  C   UNL     1      -2.576  -6.325  15.961  1.00  0.00     0.000 A 
ENDBRANCH  44  45
ENDBRANCH  43  44
ENDBRANCH  42  43
ENDBRANCH  40  42
ENDBRANCH  36  40
ENDBRANCH   1  31
TORSDOF 14
ENDMDL
