MODEL 1
REMARK minimizedAffinity -7.21590233
REMARK CNNscore 0.514470875
REMARK CNNaffinity 5.64486313
REMARK SMILES CC(=O)/N=c1\sc(S(=O)(=O)NC(=O)c2ccc(N3CCN(Cc4ccccc4-c4ccc(Cl)cc4)CC3)cc2)nn1C
REMARK SMILES IDX 14 1 15 2 16 3 17 4 38 5 39 6 12 7 11 8 13 9 8 11 9 12 10 13
REMARK SMILES IDX 7 14 4 15 5 16 6 17 41 18 40 19 42 20 2 21 3 22 1 23 18 24
REMARK SMILES IDX 19 25 37 26 20 27 36 28 21 29 22 30 23 31 24 32 28 33 25 34
REMARK SMILES IDX 27 35 26 36 29 37 30 38 35 39 31 40 34 41 32 42 33 43
REMARK H PARENT 11 10
ROOT
ATOM      1  C   UNL     1      -9.086   5.888   9.516  1.00  0.00     0.040 A 
ATOM      2  C   UNL     1      -9.678   7.127   9.266  1.00  0.00     0.016 A 
ATOM      3  C   UNL     1      -9.855   7.575   7.948  1.00  0.00     0.027 A 
ATOM      4  C   UNL     1      -9.472   6.801   6.842  1.00  0.00     0.037 A 
ATOM      5  C   UNL     1      -8.862   5.567   7.125  1.00  0.00     0.027 A 
ATOM      6  C   UNL     1      -8.669   5.107   8.437  1.00  0.00     0.016 A 
ENDROOT
BRANCH   1   7
ATOM      7  C   UNL     1      -8.938   5.445  10.927  1.00  0.00     0.265 C 
ATOM      8  N   UNL     1      -7.884   6.031  11.639  1.00  0.00    -0.243 N 
ATOM      9  O   UNL     1      -9.693   4.627  11.427  1.00  0.00    -0.268 OA
ATOM     10  H   UNL     1      -7.533   6.950  11.391  1.00  0.00     0.183 HD
BRANCH   8  11
ATOM     11  S   UNL     1      -7.563   5.632  13.237  1.00  0.00     0.293 S 
ATOM     12  O   UNL     1      -8.815   5.690  13.965  1.00  0.00    -0.199 OA
ATOM     13  O   UNL     1      -6.806   4.395  13.171  1.00  0.00    -0.199 OA
BRANCH  11  14
ATOM     14  C   UNL     1      -6.461   6.859  13.908  1.00  0.00     0.252 A 
ATOM     15  N   UNL     1      -3.834   9.443  14.480  1.00  0.00    -0.184 NA
ATOM     16  C   UNL     1      -4.791   8.575  14.398  1.00  0.00     0.211 A 
ATOM     17  S   UNL     1      -5.500   7.949  12.915  1.00  0.00    -0.062 S 
ATOM     18  N   UNL     1      -5.455   8.000  15.466  1.00  0.00    -0.240 N 
ATOM     19  N   UNL     1      -6.352   6.990  15.205  1.00  0.00    -0.145 NA
ATOM     20  C   UNL     1      -4.989   8.127  16.835  1.00  0.00     0.177 C 
BRANCH  15  21
ATOM     21  C   UNL     1      -3.249   9.883  13.324  1.00  0.00     0.245 C 
ATOM     22  O   UNL     1      -3.725  10.753  12.603  1.00  0.00    -0.273 OA
ATOM     23  C   UNL     1      -1.993   9.142  12.955  1.00  0.00     0.117 C 
ENDBRANCH  15  21
ENDBRANCH  11  14
ENDBRANCH   8  11
ENDBRANCH   1   7
BRANCH   4  24
ATOM     24  N   UNL     1      -9.666   7.223   5.535  1.00  0.00    -0.369 N 
ATOM     25  C   UNL     1      -8.547   7.704   4.705  1.00  0.00     0.132 C 
ATOM     26  C   UNL     1     -11.016   7.617   5.080  1.00  0.00     0.132 C 
ATOM     27  C   UNL     1      -8.980   7.801   3.223  1.00  0.00     0.106 C 
ATOM     28  C   UNL     1     -10.964   8.865   4.165  1.00  0.00     0.106 C 
ATOM     29  N   UNL     1     -10.080   8.767   2.984  1.00  0.00    -0.296 NA
BRANCH  29  30
ATOM     30  C   UNL     1     -10.842   8.424   1.767  1.00  0.00     0.120 C 
BRANCH  30  31
ATOM     31  C   UNL     1     -10.925   6.929   1.493  1.00  0.00    -0.026 A 
ATOM     32  C   UNL     1     -11.746   6.133   2.318  1.00  0.00     0.006 A 
ATOM     33  C   UNL     1     -10.160   6.303   0.481  1.00  0.00    -0.014 A 
ATOM     34  C   UNL     1     -11.841   4.754   2.129  1.00  0.00     0.000 A 
ATOM     35  C   UNL     1     -10.272   4.910   0.307  1.00  0.00     0.009 A 
ATOM     36  C   UNL     1     -11.108   4.143   1.120  1.00  0.00     0.001 A 
BRANCH  33  37
ATOM     37  C   UNL     1      -9.238   7.045  -0.389  1.00  0.00    -0.018 A 
ATOM     38  C   UNL     1      -7.900   7.239  -0.008  1.00  0.00     0.010 A 
ATOM     39  C   UNL     1      -9.673   7.570  -1.615  1.00  0.00     0.010 A 
ATOM     40  C   UNL     1      -7.021   7.950  -0.829  1.00  0.00     0.021 A 
ATOM     41  C   UNL     1      -8.795   8.282  -2.438  1.00  0.00     0.021 A 
ATOM     42  C   UNL     1      -7.473   8.470  -2.039  1.00  0.00     0.041 A 
ATOM     43  Cl  UNL     1      -6.394   9.352  -3.048  1.00  0.00    -0.084 Cl
ENDBRANCH  33  37
ENDBRANCH  30  31
ENDBRANCH  29  30
ENDBRANCH   4  24
TORSDOF 8
ENDMDL
MODEL 2
REMARK minimizedAffinity -6.33286524
REMARK CNNscore 0.513400793
REMARK CNNaffinity 5.20769548
REMARK SMILES CC(=O)/N=c1\sc(S(=O)(=O)NC(=O)c2ccc(N3CCN(Cc4ccccc4-c4ccc(Cl)cc4)CC3)cc2)nn1C
REMARK SMILES IDX 14 1 15 2 16 3 17 4 38 5 39 6 12 7 11 8 13 9 8 11 9 12 10 13
REMARK SMILES IDX 7 14 4 15 5 16 6 17 41 18 40 19 42 20 2 21 3 22 1 23 18 24
REMARK SMILES IDX 19 25 37 26 20 27 36 28 21 29 22 30 23 31 24 32 28 33 25 34
REMARK SMILES IDX 27 35 26 36 29 37 30 38 35 39 31 40 34 41 32 42 33 43
REMARK H PARENT 11 10
ROOT
ATOM      1  C   UNL     1      16.673   5.495   1.441  1.00  0.00     0.040 A 
ATOM      2  C   UNL     1      16.282   6.834   1.484  1.00  0.00     0.016 A 
ATOM      3  C   UNL     1      15.925   7.506   0.306  1.00  0.00     0.027 A 
ATOM      4  C   UNL     1      15.924   6.867  -0.943  1.00  0.00     0.037 A 
ATOM      5  C   UNL     1      16.340   5.525  -0.958  1.00  0.00     0.027 A 
ATOM      6  C   UNL     1      16.708   4.840   0.210  1.00  0.00     0.016 A 
ENDROOT
BRANCH   1   7
ATOM      7  C   UNL     1      17.023   4.817   2.717  1.00  0.00     0.265 C 
ATOM      8  N   UNL     1      16.919   5.605   3.871  1.00  0.00    -0.243 N 
ATOM      9  O   UNL     1      17.371   3.648   2.749  1.00  0.00    -0.268 OA
ATOM     10  H   UNL     1      16.279   6.390   3.911  1.00  0.00     0.183 HD
BRANCH   8  11
ATOM     11  S   UNL     1      17.292   5.002   5.392  1.00  0.00     0.293 S 
ATOM     12  O   UNL     1      16.203   4.139   5.803  1.00  0.00    -0.199 OA
ATOM     13  O   UNL     1      18.640   4.478   5.269  1.00  0.00    -0.199 OA
BRANCH  11  14
ATOM     14  C   UNL     1      17.388   6.372   6.526  1.00  0.00     0.252 A 
ATOM     15  N   UNL     1      16.710   9.287   8.749  1.00  0.00    -0.184 NA
ATOM     16  C   UNL     1      17.063   8.271   8.029  1.00  0.00     0.211 A 
ATOM     17  S   UNL     1      15.982   7.083   7.311  1.00  0.00    -0.062 S 
ATOM     18  N   UNL     1      18.361   7.915   7.714  1.00  0.00    -0.240 N 
ATOM     19  N   UNL     1      18.554   6.886   6.821  1.00  0.00    -0.145 NA
ATOM     20  C   UNL     1      19.492   8.789   7.963  1.00  0.00     0.177 C 
BRANCH  15  21
ATOM     21  C   UNL     1      15.374   9.529   8.931  1.00  0.00     0.245 C 
ATOM     22  O   UNL     1      14.726   9.112   9.884  1.00  0.00    -0.273 OA
ATOM     23  C   UNL     1      14.733  10.291   7.803  1.00  0.00     0.117 C 
ENDBRANCH  15  21
ENDBRANCH  11  14
ENDBRANCH   8  11
ENDBRANCH   1   7
BRANCH   4  24
ATOM     24  N   UNL     1      15.548   7.515  -2.110  1.00  0.00    -0.369 N 
ATOM     25  C   UNL     1      16.445   7.588  -3.277  1.00  0.00     0.132 C 
ATOM     26  C   UNL     1      14.453   8.509  -2.083  1.00  0.00     0.132 C 
ATOM     27  C   UNL     1      15.669   8.072  -4.525  1.00  0.00     0.106 C 
ATOM     28  C   UNL     1      14.776   9.733  -2.975  1.00  0.00     0.106 C 
ATOM     29  N   UNL     1      15.107   9.438  -4.385  1.00  0.00    -0.296 NA
BRANCH  29  30
ATOM     30  C   UNL     1      13.939   9.632  -5.266  1.00  0.00     0.120 C 
BRANCH  30  31
ATOM     31  C   UNL     1      13.199   8.345  -5.599  1.00  0.00    -0.026 A 
ATOM     32  C   UNL     1      12.384   7.755  -4.611  1.00  0.00     0.006 A 
ATOM     33  C   UNL     1      13.349   7.688  -6.844  1.00  0.00    -0.014 A 
ATOM     34  C   UNL     1      11.702   6.563  -4.854  1.00  0.00     0.000 A 
ATOM     35  C   UNL     1      12.651   6.485  -7.067  1.00  0.00     0.009 A 
ATOM     36  C   UNL     1      11.831   5.929  -6.083  1.00  0.00     0.001 A 
BRANCH  33  37
ATOM     37  C   UNL     1      14.219   8.200  -7.910  1.00  0.00    -0.018 A 
ATOM     38  C   UNL     1      15.477   7.619  -8.145  1.00  0.00     0.010 A 
ATOM     39  C   UNL     1      13.812   9.274  -8.716  1.00  0.00     0.010 A 
ATOM     40  C   UNL     1      16.311   8.107  -9.154  1.00  0.00     0.021 A 
ATOM     41  C   UNL     1      14.646   9.764  -9.726  1.00  0.00     0.021 A 
ATOM     42  C   UNL     1      15.892   9.179  -9.938  1.00  0.00     0.041 A 
ATOM     43  Cl  UNL     1      16.921   9.786 -11.177  1.00  0.00    -0.084 Cl
ENDBRANCH  33  37
ENDBRANCH  30  31
ENDBRANCH  29  30
ENDBRANCH   4  24
TORSDOF 8
ENDMDL
MODEL 3
REMARK minimizedAffinity -7.33568144
REMARK CNNscore 0.389415473
REMARK CNNaffinity 4.99272156
REMARK SMILES CC(=O)/N=c1\sc(S(=O)(=O)NC(=O)c2ccc(N3CCN(Cc4ccccc4-c4ccc(Cl)cc4)CC3)cc2)nn1C
REMARK SMILES IDX 14 1 15 2 16 3 17 4 38 5 39 6 12 7 11 8 13 9 8 11 9 12 10 13
REMARK SMILES IDX 7 14 4 15 5 16 6 17 41 18 40 19 42 20 2 21 3 22 1 23 18 24
REMARK SMILES IDX 19 25 37 26 20 27 36 28 21 29 22 30 23 31 24 32 28 33 25 34
REMARK SMILES IDX 27 35 26 36 29 37 30 38 35 39 31 40 34 41 32 42 33 43
REMARK H PARENT 11 10
ROOT
ATOM      1  C   UNL     1      -8.371   3.573   8.742  1.00  0.00     0.040 A 
ATOM      2  C   UNL     1      -9.484   4.005   8.020  1.00  0.00     0.016 A 
ATOM      3  C   UNL     1     -10.045   3.188   7.028  1.00  0.00     0.027 A 
ATOM      4  C   UNL     1      -9.535   1.913   6.738  1.00  0.00     0.037 A 
ATOM      5  C   UNL     1      -8.403   1.513   7.468  1.00  0.00     0.027 A 
ATOM      6  C   UNL     1      -7.824   2.321   8.458  1.00  0.00     0.016 A 
ENDROOT
BRANCH   1   7
ATOM      7  C   UNL     1      -7.822   4.463   9.798  1.00  0.00     0.265 C 
ATOM      8  N   UNL     1      -8.760   4.992  10.694  1.00  0.00    -0.243 N 
ATOM      9  O   UNL     1      -6.629   4.708   9.877  1.00  0.00    -0.268 OA
ATOM     10  H   UNL     1      -9.629   4.506  10.888  1.00  0.00     0.183 HD
BRANCH   8  11
ATOM     11  S   UNL     1      -8.314   6.029  11.937  1.00  0.00     0.293 S 
ATOM     12  O   UNL     1      -8.233   7.366  11.386  1.00  0.00    -0.199 OA
ATOM     13  O   UNL     1      -9.232   5.733  13.021  1.00  0.00    -0.199 OA
BRANCH  11  14
ATOM     14  C   UNL     1      -6.695   5.552  12.506  1.00  0.00     0.252 A 
ATOM     15  N   UNL     1      -3.054   5.293  13.264  1.00  0.00    -0.184 NA
ATOM     16  C   UNL     1      -4.336   5.289  13.085  1.00  0.00     0.211 A 
ATOM     17  S   UNL     1      -5.308   6.635  12.504  1.00  0.00    -0.062 S 
ATOM     18  N   UNL     1      -5.185   4.229  13.347  1.00  0.00    -0.240 N 
ATOM     19  N   UNL     1      -6.503   4.344  12.969  1.00  0.00    -0.145 NA
ATOM     20  C   UNL     1      -4.699   2.893  13.637  1.00  0.00     0.177 C 
BRANCH  15  21
ATOM     21  C   UNL     1      -2.348   6.412  12.912  1.00  0.00     0.245 C 
ATOM     22  O   UNL     1      -2.104   7.339  13.677  1.00  0.00    -0.273 OA
ATOM     23  C   UNL     1      -1.958   6.455  11.459  1.00  0.00     0.117 C 
ENDBRANCH  15  21
ENDBRANCH  11  14
ENDBRANCH   8  11
ENDBRANCH   1   7
BRANCH   4  24
ATOM     24  N   UNL     1     -10.099   1.087   5.777  1.00  0.00    -0.369 N 
ATOM     25  C   UNL     1      -9.413   0.803   4.503  1.00  0.00     0.132 C 
ATOM     26  C   UNL     1     -11.553   0.822   5.792  1.00  0.00     0.132 C 
ATOM     27  C   UNL     1     -10.097  -0.377   3.774  1.00  0.00     0.106 C 
ATOM     28  C   UNL     1     -12.143   0.817   4.360  1.00  0.00     0.106 C 
ATOM     29  N   UNL     1     -11.508  -0.110   3.400  1.00  0.00    -0.296 NA
BRANCH  29  30
ATOM     30  C   UNL     1     -12.276  -1.364   3.271  1.00  0.00     0.120 C 
BRANCH  30  31
ATOM     31  C   UNL     1     -13.406  -1.292   2.254  1.00  0.00    -0.026 A 
ATOM     32  C   UNL     1     -14.614  -0.666   2.623  1.00  0.00     0.006 A 
ATOM     33  C   UNL     1     -13.307  -1.887   0.973  1.00  0.00    -0.014 A 
ATOM     34  C   UNL     1     -15.690  -0.594   1.740  1.00  0.00     0.000 A 
ATOM     35  C   UNL     1     -14.407  -1.802   0.097  1.00  0.00     0.009 A 
ATOM     36  C   UNL     1     -15.586  -1.157   0.475  1.00  0.00     0.001 A 
BRANCH  33  37
ATOM     37  C   UNL     1     -12.109  -2.608   0.524  1.00  0.00    -0.018 A 
ATOM     38  C   UNL     1     -11.392  -2.165  -0.600  1.00  0.00     0.010 A 
ATOM     39  C   UNL     1     -11.656  -3.746   1.208  1.00  0.00     0.010 A 
ATOM     40  C   UNL     1     -10.255  -2.851  -1.036  1.00  0.00     0.021 A 
ATOM     41  C   UNL     1     -10.520  -4.434   0.773  1.00  0.00     0.021 A 
ATOM     42  C   UNL     1      -9.825  -3.984  -0.348  1.00  0.00     0.041 A 
ATOM     43  Cl  UNL     1      -8.430  -4.834  -0.888  1.00  0.00    -0.084 Cl
ENDBRANCH  33  37
ENDBRANCH  30  31
ENDBRANCH  29  30
ENDBRANCH   4  24
TORSDOF 8
ENDMDL
MODEL 4
REMARK minimizedAffinity -6.89163256
REMARK CNNscore 0.295215726
REMARK CNNaffinity 4.99740934
REMARK SMILES CC(=O)/N=c1\sc(S(=O)(=O)NC(=O)c2ccc(N3CCN(Cc4ccccc4-c4ccc(Cl)cc4)CC3)cc2)nn1C
REMARK SMILES IDX 14 1 15 2 16 3 17 4 38 5 39 6 12 7 11 8 13 9 8 11 9 12 10 13
REMARK SMILES IDX 7 14 4 15 5 16 6 17 41 18 40 19 42 20 2 21 3 22 1 23 18 24
REMARK SMILES IDX 19 25 37 26 20 27 36 28 21 29 22 30 23 31 24 32 28 33 25 34
REMARK SMILES IDX 27 35 26 36 29 37 30 38 35 39 31 40 34 41 32 42 33 43
REMARK H PARENT 11 10
ROOT
ATOM      1  C   UNL     1      16.049   4.900  -2.739  1.00  0.00     0.040 A 
ATOM      2  C   UNL     1      16.660   6.009  -3.329  1.00  0.00     0.016 A 
ATOM      3  C   UNL     1      15.927   6.857  -4.172  1.00  0.00     0.027 A 
ATOM      4  C   UNL     1      14.565   6.645  -4.437  1.00  0.00     0.037 A 
ATOM      5  C   UNL     1      13.982   5.512  -3.845  1.00  0.00     0.027 A 
ATOM      6  C   UNL     1      14.703   4.648  -3.006  1.00  0.00     0.016 A 
ENDROOT
BRANCH   1   7
ATOM      7  C   UNL     1      16.859   4.041  -1.837  1.00  0.00     0.265 C 
ATOM      8  N   UNL     1      18.170   4.474  -1.602  1.00  0.00    -0.243 N 
ATOM      9  O   UNL     1      16.401   3.029  -1.331  1.00  0.00    -0.268 OA
ATOM     10  H   UNL     1      18.417   5.455  -1.670  1.00  0.00     0.183 HD
BRANCH   8  11
ATOM     11  S   UNL     1      19.227   3.613  -0.622  1.00  0.00     0.293 S 
ATOM     12  O   UNL     1      19.346   2.278  -1.171  1.00  0.00    -0.199 OA
ATOM     13  O   UNL     1      20.396   4.463  -0.492  1.00  0.00    -0.199 OA
BRANCH  11  14
ATOM     14  C   UNL     1      18.509   3.495   1.003  1.00  0.00     0.252 A 
ATOM     15  N   UNL     1      17.178   4.124   4.429  1.00  0.00    -0.184 NA
ATOM     16  C   UNL     1      17.588   3.789   3.247  1.00  0.00     0.211 A 
ATOM     17  S   UNL     1      17.971   4.891   1.931  1.00  0.00    -0.062 S 
ATOM     18  N   UNL     1      17.772   2.496   2.792  1.00  0.00    -0.240 N 
ATOM     19  N   UNL     1      18.347   2.320   1.554  1.00  0.00    -0.145 NA
ATOM     20  C   UNL     1      17.753   1.347   3.677  1.00  0.00     0.177 C 
BRANCH  15  21
ATOM     21  C   UNL     1      17.090   5.454   4.738  1.00  0.00     0.245 C 
ATOM     22  O   UNL     1      18.054   6.158   5.022  1.00  0.00    -0.273 OA
ATOM     23  C   UNL     1      15.681   5.978   4.786  1.00  0.00     0.117 C 
ENDBRANCH  15  21
ENDBRANCH  11  14
ENDBRANCH   8  11
ENDBRANCH   1   7
BRANCH   4  24
ATOM     24  N   UNL     1      13.825   7.492  -5.248  1.00  0.00    -0.369 N 
ATOM     25  C   UNL     1      13.896   8.958  -5.103  1.00  0.00     0.132 C 
ATOM     26  C   UNL     1      12.639   6.979  -5.966  1.00  0.00     0.132 C 
ATOM     27  C   UNL     1      13.237   9.652  -6.318  1.00  0.00     0.106 C 
ATOM     28  C   UNL     1      11.477   8.002  -5.948  1.00  0.00     0.106 C 
ATOM     29  N   UNL     1      11.792   9.350  -6.467  1.00  0.00    -0.296 NA
BRANCH  29  30
ATOM     30  C   UNL     1      11.352   9.505  -7.867  1.00  0.00     0.120 C 
BRANCH  30  31
ATOM     31  C   UNL     1      11.350  10.946  -8.356  1.00  0.00    -0.026 A 
ATOM     32  C   UNL     1      12.009  11.926  -7.585  1.00  0.00     0.006 A 
ATOM     33  C   UNL     1      10.658  11.346  -9.524  1.00  0.00    -0.014 A 
ATOM     34  C   UNL     1      12.019  13.265  -7.973  1.00  0.00     0.000 A 
ATOM     35  C   UNL     1      10.681  12.705  -9.896  1.00  0.00     0.009 A 
ATOM     36  C   UNL     1      11.359  13.655  -9.131  1.00  0.00     0.001 A 
BRANCH  33  37
ATOM     37  C   UNL     1       9.899  10.405 -10.357  1.00  0.00    -0.018 A 
ATOM     38  C   UNL     1      10.521   9.736 -11.424  1.00  0.00     0.010 A 
ATOM     39  C   UNL     1       8.542  10.153 -10.103  1.00  0.00     0.010 A 
ATOM     40  C   UNL     1       9.802   8.845 -12.224  1.00  0.00     0.021 A 
ATOM     41  C   UNL     1       7.821   9.262 -10.903  1.00  0.00     0.021 A 
ATOM     42  C   UNL     1       8.453   8.614 -11.961  1.00  0.00     0.041 A 
ATOM     43  Cl  UNL     1       7.564   7.522 -12.950  1.00  0.00    -0.084 Cl
ENDBRANCH  33  37
ENDBRANCH  30  31
ENDBRANCH  29  30
ENDBRANCH   4  24
TORSDOF 8
ENDMDL
MODEL 5
REMARK minimizedAffinity -6.32982016
REMARK CNNscore 0.295190215
REMARK CNNaffinity 5.71371508
REMARK SMILES CC(=O)/N=c1\sc(S(=O)(=O)NC(=O)c2ccc(N3CCN(Cc4ccccc4-c4ccc(Cl)cc4)CC3)cc2)nn1C
REMARK SMILES IDX 14 1 15 2 16 3 17 4 38 5 39 6 12 7 11 8 13 9 8 11 9 12 10 13
REMARK SMILES IDX 7 14 4 15 5 16 6 17 41 18 40 19 42 20 2 21 3 22 1 23 18 24
REMARK SMILES IDX 19 25 37 26 20 27 36 28 21 29 22 30 23 31 24 32 28 33 25 34
REMARK SMILES IDX 27 35 26 36 29 37 30 38 35 39 31 40 34 41 32 42 33 43
REMARK H PARENT 11 10
ROOT
ATOM      1  C   UNL     1      15.285  12.872   3.897  1.00  0.00     0.040 A 
ATOM      2  C   UNL     1      14.455  13.088   2.795  1.00  0.00     0.016 A 
ATOM      3  C   UNL     1      14.624  12.337   1.623  1.00  0.00     0.027 A 
ATOM      4  C   UNL     1      15.603  11.337   1.516  1.00  0.00     0.037 A 
ATOM      5  C   UNL     1      16.435  11.155   2.634  1.00  0.00     0.027 A 
ATOM      6  C   UNL     1      16.285  11.903   3.811  1.00  0.00     0.016 A 
ENDROOT
BRANCH   1   7
ATOM      7  C   UNL     1      15.056  13.677   5.126  1.00  0.00     0.265 C 
ATOM      8  N   UNL     1      15.008  12.954   6.324  1.00  0.00    -0.243 N 
ATOM      9  O   UNL     1      14.924  14.889   5.085  1.00  0.00    -0.268 OA
ATOM     10  H   UNL     1      15.495  12.069   6.421  1.00  0.00     0.183 HD
BRANCH   8  11
ATOM     11  S   UNL     1      14.741  13.704   7.802  1.00  0.00     0.293 S 
ATOM     12  O   UNL     1      15.093  12.760   8.844  1.00  0.00    -0.199 OA
ATOM     13  O   UNL     1      15.423  14.981   7.705  1.00  0.00    -0.199 OA
BRANCH  11  14
ATOM     14  C   UNL     1      13.004  14.071   7.934  1.00  0.00     0.252 A 
ATOM     15  N   UNL     1       9.529  14.778   9.087  1.00  0.00    -0.184 NA
ATOM     16  C   UNL     1      10.697  14.567   8.570  1.00  0.00     0.211 A 
ATOM     17  S   UNL     1      12.232  14.589   9.429  1.00  0.00    -0.062 S 
ATOM     18  N   UNL     1      10.956  14.314   7.235  1.00  0.00    -0.240 N 
ATOM     19  N   UNL     1      12.241  13.974   6.877  1.00  0.00    -0.145 NA
ATOM     20  C   UNL     1       9.907  14.017   6.279  1.00  0.00     0.177 C 
BRANCH  15  21
ATOM     21  C   UNL     1       9.437  14.970  10.440  1.00  0.00     0.245 C 
ATOM     22  O   UNL     1       9.521  14.070  11.267  1.00  0.00    -0.273 OA
ATOM     23  C   UNL     1       9.136  16.390  10.835  1.00  0.00     0.117 C 
ENDBRANCH  15  21
ENDBRANCH  11  14
ENDBRANCH   8  11
ENDBRANCH   1   7
BRANCH   4  24
ATOM     24  N   UNL     1      15.762  10.571   0.370  1.00  0.00    -0.369 N 
ATOM     25  C   UNL     1      15.508  11.126  -0.971  1.00  0.00     0.132 C 
ATOM     26  C   UNL     1      15.759   9.095   0.462  1.00  0.00     0.132 C 
ATOM     27  C   UNL     1      16.062  10.177  -2.061  1.00  0.00     0.106 C 
ATOM     28  C   UNL     1      14.980   8.455  -0.712  1.00  0.00     0.106 C 
ATOM     29  N   UNL     1      15.421   8.839  -2.070  1.00  0.00    -0.296 NA
BRANCH  29  30
ATOM     30  C   UNL     1      16.314   7.820  -2.655  1.00  0.00     0.120 C 
BRANCH  30  31
ATOM     31  C   UNL     1      15.750   6.407  -2.610  1.00  0.00    -0.026 A 
ATOM     32  C   UNL     1      16.334   5.471  -1.733  1.00  0.00     0.006 A 
ATOM     33  C   UNL     1      14.701   5.986  -3.462  1.00  0.00    -0.014 A 
ATOM     34  C   UNL     1      15.873   4.156  -1.668  1.00  0.00     0.000 A 
ATOM     35  C   UNL     1      14.252   4.653  -3.378  1.00  0.00     0.009 A 
ATOM     36  C   UNL     1      14.829   3.748  -2.487  1.00  0.00     0.001 A 
BRANCH  33  37
ATOM     37  C   UNL     1      14.070   6.877  -4.444  1.00  0.00    -0.018 A 
ATOM     38  C   UNL     1      12.840   7.492  -4.161  1.00  0.00     0.010 A 
ATOM     39  C   UNL     1      14.684   7.133  -5.679  1.00  0.00     0.010 A 
ATOM     40  C   UNL     1      12.233   8.336  -5.095  1.00  0.00     0.021 A 
ATOM     41  C   UNL     1      14.078   7.976  -6.615  1.00  0.00     0.021 A 
ATOM     42  C   UNL     1      12.854   8.572  -6.319  1.00  0.00     0.041 A 
ATOM     43  Cl  UNL     1      12.104   9.604  -7.474  1.00  0.00    -0.084 Cl
ENDBRANCH  33  37
ENDBRANCH  30  31
ENDBRANCH  29  30
ENDBRANCH   4  24
TORSDOF 8
ENDMDL
MODEL 6
REMARK minimizedAffinity -6.39314127
REMARK CNNscore 0.286764741
REMARK CNNaffinity 6.19011068
REMARK SMILES CC(=O)/N=c1\sc(S(=O)(=O)NC(=O)c2ccc(N3CCN(Cc4ccccc4-c4ccc(Cl)cc4)CC3)cc2)nn1C
REMARK SMILES IDX 14 1 15 2 16 3 17 4 38 5 39 6 12 7 11 8 13 9 8 11 9 12 10 13
REMARK SMILES IDX 7 14 4 15 5 16 6 17 41 18 40 19 42 20 2 21 3 22 1 23 18 24
REMARK SMILES IDX 19 25 37 26 20 27 36 28 21 29 22 30 23 31 24 32 28 33 25 34
REMARK SMILES IDX 27 35 26 36 29 37 30 38 35 39 31 40 34 41 32 42 33 43
REMARK H PARENT 11 10
ROOT
ATOM      1  C   UNL     1      -4.513 -21.559   2.828  1.00  0.00     0.040 A 
ATOM      2  C   UNL     1      -3.476 -21.639   1.897  1.00  0.00     0.016 A 
ATOM      3  C   UNL     1      -3.252 -22.827   1.186  1.00  0.00     0.027 A 
ATOM      4  C   UNL     1      -4.062 -23.961   1.360  1.00  0.00     0.037 A 
ATOM      5  C   UNL     1      -5.086 -23.856   2.316  1.00  0.00     0.027 A 
ATOM      6  C   UNL     1      -5.318 -22.679   3.042  1.00  0.00     0.016 A 
ENDROOT
BRANCH   1   7
ATOM      7  C   UNL     1      -4.726 -20.274   3.543  1.00  0.00     0.265 C 
ATOM      8  N   UNL     1      -5.993 -19.697   3.392  1.00  0.00    -0.243 N 
ATOM      9  O   UNL     1      -3.849 -19.763   4.222  1.00  0.00    -0.268 OA
ATOM     10  H   UNL     1      -6.807 -20.269   3.192  1.00  0.00     0.183 HD
BRANCH   8  11
ATOM     11  S   UNL     1      -6.397 -18.238   4.117  1.00  0.00     0.293 S 
ATOM     12  O   UNL     1      -6.767 -18.517   5.490  1.00  0.00    -0.199 OA
ATOM     13  O   UNL     1      -5.287 -17.351   3.819  1.00  0.00    -0.199 OA
BRANCH  11  14
ATOM     14  C   UNL     1      -7.815 -17.569   3.273  1.00  0.00     0.252 A 
ATOM     15  N   UNL     1     -10.378 -16.504   0.784  1.00  0.00    -0.184 NA
ATOM     16  C   UNL     1      -9.571 -16.839   1.739  1.00  0.00     0.211 A 
ATOM     17  S   UNL     1      -8.267 -18.014   1.631  1.00  0.00    -0.062 S 
ATOM     18  N   UNL     1      -9.606 -16.355   3.033  1.00  0.00    -0.240 N 
ATOM     19  N   UNL     1      -8.587 -16.711   3.887  1.00  0.00    -0.145 NA
ATOM     20  C   UNL     1     -10.418 -15.216   3.419  1.00  0.00     0.177 C 
BRANCH  15  21
ATOM     21  C   UNL     1     -10.182 -17.044  -0.459  1.00  0.00     0.245 C 
ATOM     22  O   UNL     1     -10.639 -18.124  -0.817  1.00  0.00    -0.273 OA
ATOM     23  C   UNL     1      -9.274 -16.231  -1.340  1.00  0.00     0.117 C 
ENDBRANCH  15  21
ENDBRANCH  11  14
ENDBRANCH   8  11
ENDBRANCH   1   7
BRANCH   4  24
ATOM     24  N   UNL     1      -3.865 -25.132   0.642  1.00  0.00    -0.369 N 
ATOM     25  C   UNL     1      -2.629 -25.923   0.778  1.00  0.00     0.132 C 
ATOM     26  C   UNL     1      -4.660 -25.393  -0.576  1.00  0.00     0.132 C 
ATOM     27  C   UNL     1      -2.806 -27.315   0.129  1.00  0.00     0.106 C 
ATOM     28  C   UNL     1      -3.795 -26.027  -1.693  1.00  0.00     0.106 C 
ATOM     29  N   UNL     1      -3.072 -27.264  -1.330  1.00  0.00    -0.296 NA
BRANCH  29  30
ATOM     30  C   UNL     1      -3.797 -28.466  -1.787  1.00  0.00     0.120 C 
BRANCH  30  31
ATOM     31  C   UNL     1      -3.038 -29.288  -2.819  1.00  0.00    -0.026 A 
ATOM     32  C   UNL     1      -1.931 -30.053  -2.397  1.00  0.00     0.006 A 
ATOM     33  C   UNL     1      -3.366 -29.262  -4.195  1.00  0.00    -0.014 A 
ATOM     34  C   UNL     1      -1.184 -30.805  -3.303  1.00  0.00     0.000 A 
ATOM     35  C   UNL     1      -2.599 -30.030  -5.092  1.00  0.00     0.009 A 
ATOM     36  C   UNL     1      -1.520 -30.798  -4.650  1.00  0.00     0.001 A 
BRANCH  33  37
ATOM     37  C   UNL     1      -4.467 -28.451  -4.732  1.00  0.00    -0.018 A 
ATOM     38  C   UNL     1      -4.248 -27.119  -5.119  1.00  0.00     0.010 A 
ATOM     39  C   UNL     1      -5.755 -28.991  -4.871  1.00  0.00     0.010 A 
ATOM     40  C   UNL     1      -5.294 -26.342  -5.624  1.00  0.00     0.021 A 
ATOM     41  C   UNL     1      -6.802 -28.215  -5.375  1.00  0.00     0.021 A 
ATOM     42  C   UNL     1      -6.567 -26.893  -5.747  1.00  0.00     0.041 A 
ATOM     43  Cl  UNL     1      -7.858 -25.935  -6.362  1.00  0.00    -0.084 Cl
ENDBRANCH  33  37
ENDBRANCH  30  31
ENDBRANCH  29  30
ENDBRANCH   4  24
TORSDOF 8
ENDMDL
MODEL 7
REMARK minimizedAffinity -7.39098883
REMARK CNNscore 0.282485396
REMARK CNNaffinity 4.9135375
REMARK SMILES CC(=O)/N=c1\sc(S(=O)(=O)NC(=O)c2ccc(N3CCN(Cc4ccccc4-c4ccc(Cl)cc4)CC3)cc2)nn1C
REMARK SMILES IDX 14 1 15 2 16 3 17 4 38 5 39 6 12 7 11 8 13 9 8 11 9 12 10 13
REMARK SMILES IDX 7 14 4 15 5 16 6 17 41 18 40 19 42 20 2 21 3 22 1 23 18 24
REMARK SMILES IDX 19 25 37 26 20 27 36 28 21 29 22 30 23 31 24 32 28 33 25 34
REMARK SMILES IDX 27 35 26 36 29 37 30 38 35 39 31 40 34 41 32 42 33 43
REMARK H PARENT 11 10
ROOT
ATOM      1  C   UNL     1      15.870   6.580   5.991  1.00  0.00     0.040 A 
ATOM      2  C   UNL     1      16.380   7.770   5.470  1.00  0.00     0.016 A 
ATOM      3  C   UNL     1      16.055   8.999   6.062  1.00  0.00     0.027 A 
ATOM      4  C   UNL     1      15.235   9.083   7.199  1.00  0.00     0.037 A 
ATOM      5  C   UNL     1      14.722   7.870   7.690  1.00  0.00     0.027 A 
ATOM      6  C   UNL     1      15.030   6.633   7.104  1.00  0.00     0.016 A 
ENDROOT
BRANCH   1   7
ATOM      7  C   UNL     1      16.257   5.299   5.343  1.00  0.00     0.265 C 
ATOM      8  N   UNL     1      17.163   4.506   6.060  1.00  0.00    -0.243 N 
ATOM      9  O   UNL     1      15.807   4.965   4.259  1.00  0.00    -0.268 OA
ATOM     10  H   UNL     1      17.220   4.563   7.071  1.00  0.00     0.183 HD
BRANCH   8  11
ATOM     11  S   UNL     1      17.719   3.038   5.466  1.00  0.00     0.293 S 
ATOM     12  O   UNL     1      16.574   2.163   5.313  1.00  0.00    -0.199 OA
ATOM     13  O   UNL     1      18.541   3.382   4.320  1.00  0.00    -0.199 OA
BRANCH  11  14
ATOM     14  C   UNL     1      18.816   2.327   6.675  1.00  0.00     0.252 A 
ATOM     15  N   UNL     1      20.697   0.082   8.982  1.00  0.00    -0.184 NA
ATOM     16  C   UNL     1      20.129   0.953   8.210  1.00  0.00     0.211 A 
ATOM     17  S   UNL     1      19.121   0.599   6.813  1.00  0.00    -0.062 S 
ATOM     18  N   UNL     1      20.235   2.326   8.327  1.00  0.00    -0.240 N 
ATOM     19  N   UNL     1      19.453   3.109   7.508  1.00  0.00    -0.145 NA
ATOM     20  C   UNL     1      20.815   2.969   9.490  1.00  0.00     0.177 C 
BRANCH  15  21
ATOM     21  C   UNL     1      20.454  -1.247   8.760  1.00  0.00     0.245 C 
ATOM     22  O   UNL     1      19.475  -1.847   9.189  1.00  0.00    -0.273 OA
ATOM     23  C   UNL     1      21.548  -1.947   8.001  1.00  0.00     0.117 C 
ENDBRANCH  15  21
ENDBRANCH  11  14
ENDBRANCH   8  11
ENDBRANCH   1   7
BRANCH   4  24
ATOM     24  N   UNL     1      14.929  10.291   7.808  1.00  0.00    -0.369 N 
ATOM     25  C   UNL     1      15.757  10.838   8.898  1.00  0.00     0.132 C 
ATOM     26  C   UNL     1      13.563  10.845   7.704  1.00  0.00     0.132 C 
ATOM     27  C   UNL     1      15.387  12.316   9.166  1.00  0.00     0.106 C 
ATOM     28  C   UNL     1      13.101  11.471   9.043  1.00  0.00     0.106 C 
ATOM     29  N   UNL     1      13.986  12.509   9.614  1.00  0.00    -0.296 NA
BRANCH  29  30
ATOM     30  C   UNL     1      13.502  13.866   9.294  1.00  0.00     0.120 C 
BRANCH  30  31
ATOM     31  C   UNL     1      12.065  14.125   9.725  1.00  0.00    -0.026 A 
ATOM     32  C   UNL     1      11.741  14.034  11.094  1.00  0.00     0.006 A 
ATOM     33  C   UNL     1      11.034  14.392   8.794  1.00  0.00    -0.014 A 
ATOM     34  C   UNL     1      10.436  14.237  11.542  1.00  0.00     0.000 A 
ATOM     35  C   UNL     1       9.724  14.594   9.269  1.00  0.00     0.009 A 
ATOM     36  C   UNL     1       9.427  14.522  10.631  1.00  0.00     0.001 A 
BRANCH  33  37
ATOM     37  C   UNL     1      11.270  14.450   7.345  1.00  0.00    -0.018 A 
ATOM     38  C   UNL     1      10.391  13.813   6.454  1.00  0.00     0.010 A 
ATOM     39  C   UNL     1      12.372  15.144   6.825  1.00  0.00     0.010 A 
ATOM     40  C   UNL     1      10.615  13.860   5.076  1.00  0.00     0.021 A 
ATOM     41  C   UNL     1      12.598  15.192   5.446  1.00  0.00     0.021 A 
ATOM     42  C   UNL     1      11.719  14.547   4.578  1.00  0.00     0.041 A 
ATOM     43  Cl  UNL     1      12.000  14.600   2.881  1.00  0.00    -0.084 Cl
ENDBRANCH  33  37
ENDBRANCH  30  31
ENDBRANCH  29  30
ENDBRANCH   4  24
TORSDOF 8
ENDMDL
MODEL 8
REMARK minimizedAffinity -6.90569878
REMARK CNNscore 0.278746009
REMARK CNNaffinity 5.02461195
REMARK SMILES CC(=O)/N=c1\sc(S(=O)(=O)NC(=O)c2ccc(N3CCN(Cc4ccccc4-c4ccc(Cl)cc4)CC3)cc2)nn1C
REMARK SMILES IDX 14 1 15 2 16 3 17 4 38 5 39 6 12 7 11 8 13 9 8 11 9 12 10 13
REMARK SMILES IDX 7 14 4 15 5 16 6 17 41 18 40 19 42 20 2 21 3 22 1 23 18 24
REMARK SMILES IDX 19 25 37 26 20 27 36 28 21 29 22 30 23 31 24 32 28 33 25 34
REMARK SMILES IDX 27 35 26 36 29 37 30 38 35 39 31 40 34 41 32 42 33 43
REMARK H PARENT 11 10
ROOT
ATOM      1  C   UNL     1      14.533   5.794  -3.915  1.00  0.00     0.040 A 
ATOM      2  C   UNL     1      15.172   6.863  -4.546  1.00  0.00     0.016 A 
ATOM      3  C   UNL     1      14.451   7.720  -5.390  1.00  0.00     0.027 A 
ATOM      4  C   UNL     1      13.076   7.557  -5.616  1.00  0.00     0.037 A 
ATOM      5  C   UNL     1      12.464   6.462  -4.983  1.00  0.00     0.027 A 
ATOM      6  C   UNL     1      13.171   5.590  -4.142  1.00  0.00     0.016 A 
ENDROOT
BRANCH   1   7
ATOM      7  C   UNL     1      15.332   4.924  -3.013  1.00  0.00     0.265 C 
ATOM      8  N   UNL     1      15.653   5.475  -1.766  1.00  0.00    -0.243 N 
ATOM      9  O   UNL     1      15.676   3.800  -3.342  1.00  0.00    -0.268 OA
ATOM     10  H   UNL     1      15.067   6.187  -1.342  1.00  0.00     0.183 HD
BRANCH   8  11
ATOM     11  S   UNL     1      16.563   4.635  -0.633  1.00  0.00     0.293 S 
ATOM     12  O   UNL     1      15.872   3.396  -0.344  1.00  0.00    -0.199 OA
ATOM     13  O   UNL     1      17.911   4.618  -1.172  1.00  0.00    -0.199 OA
BRANCH  11  14
ATOM     14  C   UNL     1      16.632   5.606   0.858  1.00  0.00     0.252 A 
ATOM     15  N   UNL     1      16.600   6.856   4.371  1.00  0.00    -0.184 NA
ATOM     16  C   UNL     1      16.657   6.537   3.117  1.00  0.00     0.211 A 
ATOM     17  S   UNL     1      16.780   4.907   2.467  1.00  0.00    -0.062 S 
ATOM     18  N   UNL     1      16.662   7.424   2.057  1.00  0.00    -0.240 N 
ATOM     19  N   UNL     1      16.586   6.911   0.782  1.00  0.00    -0.145 NA
ATOM     20  C   UNL     1      16.361   8.834   2.217  1.00  0.00     0.177 C 
BRANCH  15  21
ATOM     21  C   UNL     1      16.558   5.852   5.301  1.00  0.00     0.245 C 
ATOM     22  O   UNL     1      15.640   5.046   5.400  1.00  0.00    -0.273 OA
ATOM     23  C   UNL     1      17.713   5.867   6.265  1.00  0.00     0.117 C 
ENDBRANCH  15  21
ENDBRANCH  11  14
ENDBRANCH   8  11
ENDBRANCH   1   7
BRANCH   4  24
ATOM     24  N   UNL     1      12.348   8.415  -6.429  1.00  0.00    -0.369 N 
ATOM     25  C   UNL     1      10.878   8.345  -6.505  1.00  0.00     0.132 C 
ATOM     26  C   UNL     1      13.014   9.112  -7.549  1.00  0.00     0.132 C 
ATOM     27  C   UNL     1      10.315   9.598  -7.217  1.00  0.00     0.106 C 
ATOM     28  C   UNL     1      12.112   9.154  -8.807  1.00  0.00     0.106 C 
ATOM     29  N   UNL     1      10.768   9.739  -8.623  1.00  0.00    -0.296 NA
BRANCH  29  30
ATOM     30  C   UNL     1      10.728  11.148  -9.061  1.00  0.00     0.120 C 
BRANCH  30  31
ATOM     31  C   UNL     1      11.057  11.345 -10.534  1.00  0.00    -0.026 A 
ATOM     32  C   UNL     1      12.380  11.672 -10.896  1.00  0.00     0.006 A 
ATOM     33  C   UNL     1      10.069  11.273 -11.544  1.00  0.00    -0.014 A 
ATOM     34  C   UNL     1      12.732  11.887 -12.228  1.00  0.00     0.000 A 
ATOM     35  C   UNL     1      10.448  11.494 -12.883  1.00  0.00     0.009 A 
ATOM     36  C   UNL     1      11.768  11.794 -13.223  1.00  0.00     0.001 A 
BRANCH  33  37
ATOM     37  C   UNL     1       8.657  10.993 -11.254  1.00  0.00    -0.018 A 
ATOM     38  C   UNL     1       8.209   9.670 -11.103  1.00  0.00     0.010 A 
ATOM     39  C   UNL     1       7.731  12.038 -11.118  1.00  0.00     0.010 A 
ATOM     40  C   UNL     1       6.866   9.398 -10.833  1.00  0.00     0.021 A 
ATOM     41  C   UNL     1       6.386  11.768 -10.849  1.00  0.00     0.021 A 
ATOM     42  C   UNL     1       5.959  10.449 -10.710  1.00  0.00     0.041 A 
ATOM     43  Cl  UNL     1       4.302  10.116 -10.384  1.00  0.00    -0.084 Cl
ENDBRANCH  33  37
ENDBRANCH  30  31
ENDBRANCH  29  30
ENDBRANCH   4  24
TORSDOF 8
ENDMDL
MODEL 9
REMARK minimizedAffinity -6.68170738
REMARK CNNscore 0.243958026
REMARK CNNaffinity 5.7969017
REMARK SMILES CC(=O)/N=c1\sc(S(=O)(=O)NC(=O)c2ccc(N3CCN(Cc4ccccc4-c4ccc(Cl)cc4)CC3)cc2)nn1C
REMARK SMILES IDX 14 1 15 2 16 3 17 4 38 5 39 6 12 7 11 8 13 9 8 11 9 12 10 13
REMARK SMILES IDX 7 14 4 15 5 16 6 17 41 18 40 19 42 20 2 21 3 22 1 23 18 24
REMARK SMILES IDX 19 25 37 26 20 27 36 28 21 29 22 30 23 31 24 32 28 33 25 34
REMARK SMILES IDX 27 35 26 36 29 37 30 38 35 39 31 40 34 41 32 42 33 43
REMARK H PARENT 11 10
ROOT
ATOM      1  C   UNL     1      -4.605 -21.552   2.888  1.00  0.00     0.040 A 
ATOM      2  C   UNL     1      -3.631 -21.658   1.894  1.00  0.00     0.016 A 
ATOM      3  C   UNL     1      -3.443 -22.869   1.211  1.00  0.00     0.027 A 
ATOM      4  C   UNL     1      -4.228 -24.001   1.478  1.00  0.00     0.037 A 
ATOM      5  C   UNL     1      -5.188 -23.871   2.496  1.00  0.00     0.027 A 
ATOM      6  C   UNL     1      -5.383 -22.670   3.195  1.00  0.00     0.016 A 
ENDROOT
BRANCH   1   7
ATOM      7  C   UNL     1      -4.782 -20.244   3.571  1.00  0.00     0.265 C 
ATOM      8  N   UNL     1      -6.051 -19.663   3.448  1.00  0.00    -0.243 N 
ATOM      9  O   UNL     1      -3.878 -19.720   4.201  1.00  0.00    -0.268 OA
ATOM     10  H   UNL     1      -6.875 -20.234   3.296  1.00  0.00     0.183 HD
BRANCH   8  11
ATOM     11  S   UNL     1      -6.417 -18.179   4.142  1.00  0.00     0.293 S 
ATOM     12  O   UNL     1      -6.782 -18.418   5.524  1.00  0.00    -0.199 OA
ATOM     13  O   UNL     1      -5.292 -17.323   3.816  1.00  0.00    -0.199 OA
BRANCH  11  14
ATOM     14  C   UNL     1      -7.828 -17.500   3.294  1.00  0.00     0.252 A 
ATOM     15  N   UNL     1     -10.373 -16.410   0.796  1.00  0.00    -0.184 NA
ATOM     16  C   UNL     1      -9.572 -16.754   1.754  1.00  0.00     0.211 A 
ATOM     17  S   UNL     1      -8.272 -17.934   1.647  1.00  0.00    -0.062 S 
ATOM     18  N   UNL     1      -9.612 -16.276   3.051  1.00  0.00    -0.240 N 
ATOM     19  N   UNL     1      -8.600 -16.641   3.909  1.00  0.00    -0.145 NA
ATOM     20  C   UNL     1     -10.422 -15.136   3.439  1.00  0.00     0.177 C 
BRANCH  15  21
ATOM     21  C   UNL     1     -10.171 -16.944  -0.448  1.00  0.00     0.245 C 
ATOM     22  O   UNL     1     -10.667 -17.999  -0.830  1.00  0.00    -0.273 OA
ATOM     23  C   UNL     1      -9.208 -16.162  -1.299  1.00  0.00     0.117 C 
ENDBRANCH  15  21
ENDBRANCH  11  14
ENDBRANCH   8  11
ENDBRANCH   1   7
BRANCH   4  24
ATOM     24  N   UNL     1      -4.068 -25.195   0.790  1.00  0.00    -0.369 N 
ATOM     25  C   UNL     1      -3.186 -26.264   1.293  1.00  0.00     0.132 C 
ATOM     26  C   UNL     1      -4.410 -25.272  -0.646  1.00  0.00     0.132 C 
ATOM     27  C   UNL     1      -3.441 -27.580   0.521  1.00  0.00     0.106 C 
ATOM     28  C   UNL     1      -3.377 -26.116  -1.431  1.00  0.00     0.106 C 
ATOM     29  N   UNL     1      -3.145 -27.488  -0.930  1.00  0.00    -0.296 NA
BRANCH  29  30
ATOM     30  C   UNL     1      -3.917 -28.481  -1.701  1.00  0.00     0.120 C 
BRANCH  30  31
ATOM     31  C   UNL     1      -4.557 -27.921  -2.963  1.00  0.00    -0.026 A 
ATOM     32  C   UNL     1      -5.874 -27.424  -2.893  1.00  0.00     0.006 A 
ATOM     33  C   UNL     1      -3.897 -27.939  -4.215  1.00  0.00    -0.014 A 
ATOM     34  C   UNL     1      -6.518 -26.922  -4.024  1.00  0.00     0.000 A 
ATOM     35  C   UNL     1      -4.567 -27.426  -5.344  1.00  0.00     0.009 A 
ATOM     36  C   UNL     1      -5.863 -26.918  -5.249  1.00  0.00     0.001 A 
BRANCH  33  37
ATOM     37  C   UNL     1      -2.547 -28.487  -4.392  1.00  0.00    -0.018 A 
ATOM     38  C   UNL     1      -2.365 -29.840  -4.723  1.00  0.00     0.010 A 
ATOM     39  C   UNL     1      -1.415 -27.673  -4.238  1.00  0.00     0.010 A 
ATOM     40  C   UNL     1      -1.081 -30.368  -4.886  1.00  0.00     0.021 A 
ATOM     41  C   UNL     1      -0.130 -28.200  -4.400  1.00  0.00     0.021 A 
ATOM     42  C   UNL     1       0.031 -29.546  -4.721  1.00  0.00     0.041 A 
ATOM     43  Cl  UNL     1       1.612 -30.196  -4.914  1.00  0.00    -0.084 Cl
ENDBRANCH  33  37
ENDBRANCH  30  31
ENDBRANCH  29  30
ENDBRANCH   4  24
TORSDOF 8
ENDMDL
