MODEL 1
REMARK minimizedAffinity -9.44934368
REMARK CNNscore 0.886511326
REMARK CNNaffinity 7.83326864
REMARK SMILES C=CC(=O)N1CC[C@@H](Oc2cc(-c3cc(F)c(O)cc3CC)cn3cncc23)C(F)(F)C1
REMARK SMILES IDX 10 1 11 2 12 3 23 4 24 5 25 6 26 7 27 8 28 9 9 10 8 11 5 12
REMARK SMILES IDX 6 13 32 14 7 15 29 16 30 17 31 18 3 19 4 20 2 21 1 22 13 23
REMARK SMILES IDX 14 24 20 25 15 26 19 27 17 28 16 29 21 30 22 31 18 32
REMARK H PARENT 18 33
ROOT
ATOM      1  C   UNL     1      12.000  15.230 -14.458  1.00  0.00     0.146 A 
ATOM      2  C   UNL     1      12.890  15.571 -15.410  1.00  0.00     0.059 A 
ATOM      3  C   UNL     1      14.213  16.105 -15.078  1.00  0.00     0.002 A 
ATOM      4  C   UNL     1      14.543  16.209 -13.773  1.00  0.00     0.101 A 
ATOM      5  N   UNL     1      13.627  15.816 -12.801  1.00  0.00    -0.302 N 
ATOM      6  C   UNL     1      13.741  15.820 -11.434  1.00  0.00     0.204 A 
ATOM      7  N   UNL     1      12.663  15.351 -10.845  1.00  0.00    -0.244 NA
ATOM      8  C   UNL     1      11.808  15.022 -11.867  1.00  0.00     0.143 A 
ATOM      9  C   UNL     1      12.366  15.318 -13.090  1.00  0.00     0.107 A 
ENDROOT
BRANCH   1  10
ATOM     10  O   UNL     1      10.767  14.700 -14.755  1.00  0.00    -0.482 OA
BRANCH  10  11
ATOM     11  C   UNL     1      10.783  13.253 -14.812  1.00  0.00     0.246 C 
ATOM     12  N   UNL     1      10.395  13.006 -17.662  1.00  0.00    -0.333 N 
ATOM     13  C   UNL     1      11.520  12.276 -17.083  1.00  0.00     0.124 C 
ATOM     14  C   UNL     1       9.219  13.179 -16.794  1.00  0.00     0.200 C 
ATOM     15  C   UNL     1      11.951  12.851 -15.732  1.00  0.00     0.073 C 
ATOM     16  C   UNL     1       9.448  12.739 -15.349  1.00  0.00     0.301 C 
ATOM     17  F   UNL     1       9.430  11.378 -15.276  1.00  0.00    -0.201 F 
ATOM     18  F   UNL     1       8.417  13.162 -14.571  1.00  0.00    -0.201 F 
BRANCH  12  19
ATOM     19  C   UNL     1      10.375  13.189 -19.040  1.00  0.00     0.246 C 
ATOM     20  O   UNL     1      10.510  14.291 -19.568  1.00  0.00    -0.270 OA
BRANCH  19  21
ATOM     21  C   UNL     1      10.175  11.975 -19.881  1.00  0.00     0.063 C 
ATOM     22  C   UNL     1      10.912  11.787 -20.984  1.00  0.00     0.014 C 
ENDBRANCH  19  21
ENDBRANCH  12  19
ENDBRANCH  10  11
ENDBRANCH   1  10
BRANCH   3  23
ATOM     23  C   UNL     1      15.195  16.511 -16.097  1.00  0.00    -0.010 A 
ATOM     24  C   UNL     1      15.943  17.677 -15.854  1.00  0.00     0.052 A 
ATOM     25  C   UNL     1      15.414  15.770 -17.283  1.00  0.00    -0.036 A 
ATOM     26  C   UNL     1      16.891  18.096 -16.777  1.00  0.00     0.165 A 
ATOM     27  C   UNL     1      16.387  16.217 -18.198  1.00  0.00     0.053 A 
ATOM     28  C   UNL     1      17.113  17.373 -17.941  1.00  0.00     0.151 A 
ATOM     29  F   UNL     1      17.603  19.209 -16.544  1.00  0.00    -0.203 F 
BRANCH  25  30
ATOM     30  C   UNL     1      14.665  14.494 -17.604  1.00  0.00     0.033 C 
ATOM     31  C   UNL     1      13.880  14.603 -18.904  1.00  0.00     0.009 C 
ENDBRANCH  25  30
BRANCH  28  32
ATOM     32  O   UNL     1      18.047  17.775 -18.853  1.00  0.00    -0.505 OA
ATOM     33  H   UNL     1      18.446  18.596 -18.507  1.00  0.00     0.293 HD
ENDBRANCH  28  32
ENDBRANCH   3  23
TORSDOF 7
ENDMDL
MODEL 2
REMARK minimizedAffinity -7.71437359
REMARK CNNscore 0.682980895
REMARK CNNaffinity 7.56579018
REMARK SMILES C=CC(=O)N1CC[C@@H](Oc2cc(-c3cc(F)c(O)cc3CC)cn3cncc23)C(F)(F)C1
REMARK SMILES IDX 10 1 11 2 12 3 23 4 24 5 25 6 26 7 27 8 28 9 9 10 8 11 5 12
REMARK SMILES IDX 6 13 32 14 7 15 29 16 30 17 31 18 3 19 4 20 2 21 1 22 13 23
REMARK SMILES IDX 14 24 20 25 15 26 19 27 17 28 16 29 21 30 22 31 18 32
REMARK H PARENT 18 33
ROOT
ATOM      1  C   UNL     1      13.457  15.861 -15.426  1.00  0.00     0.146 A 
ATOM      2  C   UNL     1      14.516  16.474 -15.988  1.00  0.00     0.059 A 
ATOM      3  C   UNL     1      15.540  17.144 -15.183  1.00  0.00     0.002 A 
ATOM      4  C   UNL     1      15.421  17.093 -13.839  1.00  0.00     0.101 A 
ATOM      5  N   UNL     1      14.342  16.421 -13.272  1.00  0.00    -0.302 N 
ATOM      6  C   UNL     1      14.021  16.230 -11.951  1.00  0.00     0.204 A 
ATOM      7  N   UNL     1      12.925  15.519 -11.805  1.00  0.00    -0.244 NA
ATOM      8  C   UNL     1      12.512  15.228 -13.081  1.00  0.00     0.143 A 
ATOM      9  C   UNL     1      13.354  15.790 -14.013  1.00  0.00     0.107 A 
ENDROOT
BRANCH   1  10
ATOM     10  O   UNL     1      12.504  15.203 -16.167  1.00  0.00    -0.482 OA
BRANCH  10  11
ATOM     11  C   UNL     1      12.984  13.945 -16.700  1.00  0.00     0.246 C 
ATOM     12  N   UNL     1      10.499  13.093 -17.895  1.00  0.00    -0.333 N 
ATOM     13  C   UNL     1      11.682  13.079 -18.751  1.00  0.00     0.124 C 
ATOM     14  C   UNL     1      10.731  12.830 -16.465  1.00  0.00     0.200 C 
ATOM     15  C   UNL     1      12.788  13.997 -18.226  1.00  0.00     0.073 C 
ATOM     16  C   UNL     1      12.207  12.787 -16.076  1.00  0.00     0.301 C 
ATOM     17  F   UNL     1      12.755  11.608 -16.488  1.00  0.00    -0.201 F 
ATOM     18  F   UNL     1      12.327  12.795 -14.724  1.00  0.00    -0.201 F 
BRANCH  12  19
ATOM     19  C   UNL     1       9.251  13.022 -18.504  1.00  0.00     0.246 C 
ATOM     20  O   UNL     1       8.972  12.180 -19.355  1.00  0.00    -0.270 OA
BRANCH  19  21
ATOM     21  C   UNL     1       8.236  14.031 -18.086  1.00  0.00     0.063 C 
ATOM     22  C   UNL     1       7.114  13.643 -17.464  1.00  0.00     0.014 C 
ENDBRANCH  19  21
ENDBRANCH  12  19
ENDBRANCH  10  11
ENDBRANCH   1  10
BRANCH   3  23
ATOM     23  C   UNL     1      16.693  17.846 -15.771  1.00  0.00    -0.010 A 
ATOM     24  C   UNL     1      17.646  18.388 -14.890  1.00  0.00     0.052 A 
ATOM     25  C   UNL     1      16.874  17.976 -17.169  1.00  0.00    -0.036 A 
ATOM     26  C   UNL     1      18.758  19.048 -15.393  1.00  0.00     0.165 A 
ATOM     27  C   UNL     1      18.016  18.646 -17.650  1.00  0.00     0.053 A 
ATOM     28  C   UNL     1      18.944  19.177 -16.763  1.00  0.00     0.151 A 
ATOM     29  F   UNL     1      19.665  19.565 -14.552  1.00  0.00    -0.203 F 
BRANCH  25  30
ATOM     30  C   UNL     1      15.905  17.401 -18.180  1.00  0.00     0.033 C 
ATOM     31  C   UNL     1      16.609  16.552 -19.229  1.00  0.00     0.009 C 
ENDBRANCH  25  30
BRANCH  28  32
ATOM     32  O   UNL     1      20.037  19.821 -17.268  1.00  0.00    -0.505 OA
ATOM     33  H   UNL     1      20.565  20.125 -16.505  1.00  0.00     0.293 HD
ENDBRANCH  28  32
ENDBRANCH   3  23
TORSDOF 7
ENDMDL
MODEL 3
REMARK minimizedAffinity -7.45273495
REMARK CNNscore 0.49395743
REMARK CNNaffinity 7.33490515
REMARK SMILES C=CC(=O)N1CC[C@@H](Oc2cc(-c3cc(F)c(O)cc3CC)cn3cncc23)C(F)(F)C1
REMARK SMILES IDX 10 1 11 2 12 3 23 4 24 5 25 6 26 7 27 8 28 9 9 10 8 11 5 12
REMARK SMILES IDX 6 13 32 14 7 15 29 16 30 17 31 18 3 19 4 20 2 21 1 22 13 23
REMARK SMILES IDX 14 24 20 25 15 26 19 27 17 28 16 29 21 30 22 31 18 32
REMARK H PARENT 18 33
ROOT
ATOM      1  C   UNL     1      13.897  16.215 -15.315  1.00  0.00     0.146 A 
ATOM      2  C   UNL     1      13.065  15.536 -16.127  1.00  0.00     0.059 A 
ATOM      3  C   UNL     1      12.077  14.588 -15.605  1.00  0.00     0.002 A 
ATOM      4  C   UNL     1      11.988  14.441 -14.266  1.00  0.00     0.101 A 
ATOM      5  N   UNL     1      12.828  15.180 -13.439  1.00  0.00    -0.302 N 
ATOM      6  C   UNL     1      12.912  15.207 -12.069  1.00  0.00     0.204 A 
ATOM      7  N   UNL     1      13.823  16.054 -11.644  1.00  0.00    -0.244 NA
ATOM      8  C   UNL     1      14.356  16.610 -12.780  1.00  0.00     0.143 A 
ATOM      9  C   UNL     1      13.778  16.075 -13.909  1.00  0.00     0.107 A 
ENDROOT
BRANCH   1  10
ATOM     10  O   UNL     1      14.809  17.130 -15.789  1.00  0.00    -0.482 OA
BRANCH  10  11
ATOM     11  C   UNL     1      16.119  16.550 -16.001  1.00  0.00     0.246 C 
ATOM     12  N   UNL     1      17.244  18.752 -17.491  1.00  0.00    -0.333 N 
ATOM     13  C   UNL     1      18.011  18.269 -16.346  1.00  0.00     0.124 C 
ATOM     14  C   UNL     1      16.439  17.745 -18.202  1.00  0.00     0.200 C 
ATOM     15  C   UNL     1      17.143  17.498 -15.349  1.00  0.00     0.073 C 
ATOM     16  C   UNL     1      16.380  16.391 -17.498  1.00  0.00     0.301 C 
ATOM     17  F   UNL     1      17.557  15.728 -17.679  1.00  0.00    -0.201 F 
ATOM     18  F   UNL     1      15.428  15.614 -18.076  1.00  0.00    -0.201 F 
BRANCH  12  19
ATOM     19  C   UNL     1      17.568  19.997 -18.015  1.00  0.00     0.246 C 
ATOM     20  O   UNL     1      18.547  20.642 -17.645  1.00  0.00    -0.270 OA
BRANCH  19  21
ATOM     21  C   UNL     1      16.663  20.546 -19.066  1.00  0.00     0.063 C 
ATOM     22  C   UNL     1      16.914  21.741 -19.618  1.00  0.00     0.014 C 
ENDBRANCH  19  21
ENDBRANCH  12  19
ENDBRANCH  10  11
ENDBRANCH   1  10
BRANCH   3  23
ATOM     23  C   UNL     1      11.174  13.811 -16.470  1.00  0.00    -0.010 A 
ATOM     24  C   UNL     1       9.806  13.804 -16.146  1.00  0.00     0.052 A 
ATOM     25  C   UNL     1      11.631  13.096 -17.603  1.00  0.00    -0.036 A 
ATOM     26  C   UNL     1       8.910  13.098 -16.937  1.00  0.00     0.165 A 
ATOM     27  C   UNL     1      10.698  12.393 -18.389  1.00  0.00     0.053 A 
ATOM     28  C   UNL     1       9.350  12.397 -18.051  1.00  0.00     0.151 A 
ATOM     29  F   UNL     1       7.605  13.093 -16.626  1.00  0.00    -0.203 F 
BRANCH  25  30
ATOM     30  C   UNL     1      13.084  13.073 -18.028  1.00  0.00     0.033 C 
ATOM     31  C   UNL     1      13.239  13.139 -19.541  1.00  0.00     0.009 C 
ENDBRANCH  25  30
BRANCH  28  32
ATOM     32  O   UNL     1       8.476  11.703 -18.838  1.00  0.00    -0.505 OA
ATOM     33  H   UNL     1       7.590  11.817 -18.446  1.00  0.00     0.293 HD
ENDBRANCH  28  32
ENDBRANCH   3  23
TORSDOF 7
ENDMDL
MODEL 4
REMARK minimizedAffinity -7.63357925
REMARK CNNscore 0.472469419
REMARK CNNaffinity 7.44348001
REMARK SMILES C=CC(=O)N1CC[C@@H](Oc2cc(-c3cc(F)c(O)cc3CC)cn3cncc23)C(F)(F)C1
REMARK SMILES IDX 10 1 11 2 12 3 23 4 24 5 25 6 26 7 27 8 28 9 9 10 8 11 5 12
REMARK SMILES IDX 6 13 32 14 7 15 29 16 30 17 31 18 3 19 4 20 2 21 1 22 13 23
REMARK SMILES IDX 14 24 20 25 15 26 19 27 17 28 16 29 21 30 22 31 18 32
REMARK H PARENT 18 33
ROOT
ATOM      1  C   UNL     1      13.892  16.131 -15.390  1.00  0.00     0.146 A 
ATOM      2  C   UNL     1      13.004  15.394 -16.085  1.00  0.00     0.059 A 
ATOM      3  C   UNL     1      12.070  14.481 -15.422  1.00  0.00     0.002 A 
ATOM      4  C   UNL     1      12.089  14.425 -14.073  1.00  0.00     0.101 A 
ATOM      5  N   UNL     1      12.985  15.222 -13.368  1.00  0.00    -0.302 N 
ATOM      6  C   UNL     1      13.178  15.342 -12.014  1.00  0.00     0.204 A 
ATOM      7  N   UNL     1      14.112  16.221 -11.722  1.00  0.00    -0.244 NA
ATOM      8  C   UNL     1      14.547  16.700 -12.932  1.00  0.00     0.143 A 
ATOM      9  C   UNL     1      13.886  16.087 -13.972  1.00  0.00     0.107 A 
ENDROOT
BRANCH   1  10
ATOM     10  O   UNL     1      14.754  17.015 -15.996  1.00  0.00    -0.482 OA
BRANCH  10  11
ATOM     11  C   UNL     1      16.092  16.481 -16.132  1.00  0.00     0.246 C 
ATOM     12  N   UNL     1      17.174  18.634 -17.721  1.00  0.00    -0.333 N 
ATOM     13  C   UNL     1      17.923  18.255 -16.526  1.00  0.00     0.124 C 
ATOM     14  C   UNL     1      16.435  17.552 -18.393  1.00  0.00     0.200 C 
ATOM     15  C   UNL     1      17.055  17.509 -15.510  1.00  0.00     0.073 C 
ATOM     16  C   UNL     1      16.408  16.242 -17.608  1.00  0.00     0.301 C 
ATOM     17  F   UNL     1      17.617  15.621 -17.713  1.00  0.00    -0.201 F 
ATOM     18  F   UNL     1      15.508  15.391 -18.166  1.00  0.00    -0.201 F 
BRANCH  12  19
ATOM     19  C   UNL     1      17.464  19.858 -18.312  1.00  0.00     0.246 C 
ATOM     20  O   UNL     1      18.257  20.661 -17.826  1.00  0.00    -0.270 OA
BRANCH  19  21
ATOM     21  C   UNL     1      16.759  20.179 -19.586  1.00  0.00     0.063 C 
ATOM     22  C   UNL     1      15.658  20.943 -19.576  1.00  0.00     0.014 C 
ENDBRANCH  19  21
ENDBRANCH  12  19
ENDBRANCH  10  11
ENDBRANCH   1  10
BRANCH   3  23
ATOM     23  C   UNL     1      11.108  13.643 -16.157  1.00  0.00    -0.010 A 
ATOM     24  C   UNL     1      11.433  13.280 -17.476  1.00  0.00     0.052 A 
ATOM     25  C   UNL     1       9.897  13.189 -15.581  1.00  0.00    -0.036 A 
ATOM     26  C   UNL     1      10.566  12.480 -18.208  1.00  0.00     0.165 A 
ATOM     27  C   UNL     1       9.040  12.374 -16.347  1.00  0.00     0.053 A 
ATOM     28  C   UNL     1       9.378  12.029 -17.650  1.00  0.00     0.151 A 
ATOM     29  F   UNL     1      10.878  12.136 -19.466  1.00  0.00    -0.203 F 
BRANCH  25  30
ATOM     30  C   UNL     1       9.488  13.518 -14.161  1.00  0.00     0.033 C 
ATOM     31  C   UNL     1       8.042  13.135 -13.878  1.00  0.00     0.009 C 
ENDBRANCH  25  30
BRANCH  28  32
ATOM     32  O   UNL     1       8.521  11.238 -18.360  1.00  0.00    -0.505 OA
ATOM     33  H   UNL     1       8.920  11.108 -19.242  1.00  0.00     0.293 HD
ENDBRANCH  28  32
ENDBRANCH   3  23
TORSDOF 7
ENDMDL
MODEL 5
REMARK minimizedAffinity -9.14748669
REMARK CNNscore 0.337955475
REMARK CNNaffinity 7.22935104
REMARK SMILES C=CC(=O)N1CC[C@@H](Oc2cc(-c3cc(F)c(O)cc3CC)cn3cncc23)C(F)(F)C1
REMARK SMILES IDX 10 1 11 2 12 3 23 4 24 5 25 6 26 7 27 8 28 9 9 10 8 11 5 12
REMARK SMILES IDX 6 13 32 14 7 15 29 16 30 17 31 18 3 19 4 20 2 21 1 22 13 23
REMARK SMILES IDX 14 24 20 25 15 26 19 27 17 28 16 29 21 30 22 31 18 32
REMARK H PARENT 18 33
ROOT
ATOM      1  C   UNL     1      11.894  13.907 -15.321  1.00  0.00     0.146 A 
ATOM      2  C   UNL     1      12.977  14.491 -15.869  1.00  0.00     0.059 A 
ATOM      3  C   UNL     1      13.737  15.527 -15.166  1.00  0.00     0.002 A 
ATOM      4  C   UNL     1      13.349  15.858 -13.916  1.00  0.00     0.101 A 
ATOM      5  N   UNL     1      12.252  15.216 -13.348  1.00  0.00    -0.302 N 
ATOM      6  C   UNL     1      11.687  15.375 -12.107  1.00  0.00     0.204 A 
ATOM      7  N   UNL     1      10.664  14.570 -11.921  1.00  0.00    -0.244 NA
ATOM      8  C   UNL     1      10.556  13.851 -13.085  1.00  0.00     0.143 A 
ATOM      9  C   UNL     1      11.510  14.241 -13.997  1.00  0.00     0.107 A 
ENDROOT
BRANCH   1  10
ATOM     10  O   UNL     1      11.189  12.912 -15.957  1.00  0.00    -0.482 OA
BRANCH  10  11
ATOM     11  C   UNL     1       9.867  13.341 -16.361  1.00  0.00     0.246 C 
ATOM     12  N   UNL     1      10.084  12.589 -19.140  1.00  0.00    -0.333 N 
ATOM     13  C   UNL     1       8.916  12.100 -18.413  1.00  0.00     0.124 C 
ATOM     14  C   UNL     1      10.616  13.892 -18.709  1.00  0.00     0.200 C 
ATOM     15  C   UNL     1       9.134  12.098 -16.899  1.00  0.00     0.073 C 
ATOM     16  C   UNL     1       9.977  14.429 -17.429  1.00  0.00     0.301 C 
ATOM     17  F   UNL     1       8.733  14.912 -17.707  1.00  0.00    -0.201 F 
ATOM     18  F   UNL     1      10.690  15.489 -16.969  1.00  0.00    -0.201 F 
BRANCH  12  19
ATOM     19  C   UNL     1      10.400  11.985 -20.351  1.00  0.00     0.246 C 
ATOM     20  O   UNL     1       9.897  10.925 -20.718  1.00  0.00    -0.270 OA
BRANCH  19  21
ATOM     21  C   UNL     1      11.399  12.678 -21.213  1.00  0.00     0.063 C 
ATOM     22  C   UNL     1      12.699  12.363 -21.131  1.00  0.00     0.014 C 
ENDBRANCH  19  21
ENDBRANCH  12  19
ENDBRANCH  10  11
ENDBRANCH   1  10
BRANCH   3  23
ATOM     23  C   UNL     1      14.908  16.202 -15.751  1.00  0.00    -0.010 A 
ATOM     24  C   UNL     1      15.545  17.190 -14.979  1.00  0.00     0.052 A 
ATOM     25  C   UNL     1      15.408  15.883 -17.036  1.00  0.00    -0.036 A 
ATOM     26  C   UNL     1      16.660  17.847 -15.480  1.00  0.00     0.165 A 
ATOM     27  C   UNL     1      16.544  16.563 -17.515  1.00  0.00     0.053 A 
ATOM     28  C   UNL     1      17.158  17.537 -16.738  1.00  0.00     0.151 A 
ATOM     29  F   UNL     1      17.266  18.789 -14.742  1.00  0.00    -0.203 F 
BRANCH  25  30
ATOM     30  C   UNL     1      14.790  14.817 -17.917  1.00  0.00     0.033 C 
ATOM     31  C   UNL     1      14.338  15.375 -19.259  1.00  0.00     0.009 C 
ENDBRANCH  25  30
BRANCH  28  32
ATOM     32  O   UNL     1      18.258  18.175 -17.237  1.00  0.00    -0.505 OA
ATOM     33  H   UNL     1      18.543  18.820 -16.561  1.00  0.00     0.293 HD
ENDBRANCH  28  32
ENDBRANCH   3  23
TORSDOF 7
ENDMDL
MODEL 6
REMARK minimizedAffinity -7.13660765
REMARK CNNscore 0.296924829
REMARK CNNaffinity 5.14504957
REMARK SMILES C=CC(=O)N1CC[C@@H](Oc2cc(-c3cc(F)c(O)cc3CC)cn3cncc23)C(F)(F)C1
REMARK SMILES IDX 10 1 11 2 12 3 23 4 24 5 25 6 26 7 27 8 28 9 9 10 8 11 5 12
REMARK SMILES IDX 6 13 32 14 7 15 29 16 30 17 31 18 3 19 4 20 2 21 1 22 13 23
REMARK SMILES IDX 14 24 20 25 15 26 19 27 17 28 16 29 21 30 22 31 18 32
REMARK H PARENT 18 33
ROOT
ATOM      1  C   UNL     1      -4.246  -7.570 -16.111  1.00  0.00     0.146 A 
ATOM      2  C   UNL     1      -5.340  -7.892 -15.395  1.00  0.00     0.059 A 
ATOM      3  C   UNL     1      -6.201  -6.870 -14.796  1.00  0.00     0.002 A 
ATOM      4  C   UNL     1      -5.895  -5.574 -15.020  1.00  0.00     0.101 A 
ATOM      5  N   UNL     1      -4.784  -5.258 -15.796  1.00  0.00    -0.302 N 
ATOM      6  C   UNL     1      -4.288  -4.032 -16.163  1.00  0.00     0.204 A 
ATOM      7  N   UNL     1      -3.222  -4.135 -16.926  1.00  0.00    -0.244 NA
ATOM      8  C   UNL     1      -3.011  -5.484 -17.068  1.00  0.00     0.143 A 
ATOM      9  C   UNL     1      -3.947  -6.207 -16.364  1.00  0.00     0.107 A 
ENDROOT
BRANCH   1  10
ATOM     10  O   UNL     1      -3.445  -8.518 -16.704  1.00  0.00    -0.482 OA
BRANCH  10  11
ATOM     11  C   UNL     1      -3.887  -8.864 -18.039  1.00  0.00     0.246 C 
ATOM     12  N   UNL     1      -5.187 -11.348 -17.349  1.00  0.00    -0.333 N 
ATOM     13  C   UNL     1      -5.969 -10.385 -18.120  1.00  0.00     0.124 C 
ATOM     14  C   UNL     1      -3.735 -11.345 -17.592  1.00  0.00     0.200 C 
ATOM     15  C   UNL     1      -5.423  -8.961 -17.994  1.00  0.00     0.073 C 
ATOM     16  C   UNL     1      -3.256 -10.188 -18.468  1.00  0.00     0.301 C 
ATOM     17  F   UNL     1      -3.578 -10.436 -19.769  1.00  0.00    -0.201 F 
ATOM     18  F   UNL     1      -1.901 -10.114 -18.432  1.00  0.00    -0.201 F 
BRANCH  12  19
ATOM     19  C   UNL     1      -5.865 -12.383 -16.717  1.00  0.00     0.246 C 
ATOM     20  O   UNL     1      -5.351 -13.083 -15.847  1.00  0.00    -0.270 OA
BRANCH  19  21
ATOM     21  C   UNL     1      -7.273 -12.629 -17.143  1.00  0.00     0.063 C 
ATOM     22  C   UNL     1      -7.831 -13.835 -16.967  1.00  0.00     0.014 C 
ENDBRANCH  19  21
ENDBRANCH  12  19
ENDBRANCH  10  11
ENDBRANCH   1  10
BRANCH   3  23
ATOM     23  C   UNL     1      -7.387  -7.193 -13.985  1.00  0.00    -0.010 A 
ATOM     24  C   UNL     1      -7.322  -6.939 -12.603  1.00  0.00     0.052 A 
ATOM     25  C   UNL     1      -8.572  -7.727 -14.546  1.00  0.00    -0.036 A 
ATOM     26  C   UNL     1      -8.417  -7.212 -11.796  1.00  0.00     0.165 A 
ATOM     27  C   UNL     1      -9.669  -7.989 -13.702  1.00  0.00     0.053 A 
ATOM     28  C   UNL     1      -9.583  -7.734 -12.339  1.00  0.00     0.151 A 
ATOM     29  F   UNL     1      -8.352  -6.970 -10.479  1.00  0.00    -0.203 F 
BRANCH  25  30
ATOM     30  C   UNL     1      -8.727  -8.007 -16.026  1.00  0.00     0.033 C 
ATOM     31  C   UNL     1      -9.098  -9.458 -16.298  1.00  0.00     0.009 C 
ENDBRANCH  25  30
BRANCH  28  32
ATOM     32  O   UNL     1     -10.667  -8.002 -11.554  1.00  0.00    -0.505 OA
ATOM     33  H   UNL     1     -10.421  -7.766 -10.639  1.00  0.00     0.293 HD
ENDBRANCH  28  32
ENDBRANCH   3  23
TORSDOF 7
ENDMDL
MODEL 7
REMARK minimizedAffinity -7.71829557
REMARK CNNscore 0.276683718
REMARK CNNaffinity 6.4438014
REMARK SMILES C=CC(=O)N1CC[C@@H](Oc2cc(-c3cc(F)c(O)cc3CC)cn3cncc23)C(F)(F)C1
REMARK SMILES IDX 10 1 11 2 12 3 23 4 24 5 25 6 26 7 27 8 28 9 9 10 8 11 5 12
REMARK SMILES IDX 6 13 32 14 7 15 29 16 30 17 31 18 3 19 4 20 2 21 1 22 13 23
REMARK SMILES IDX 14 24 20 25 15 26 19 27 17 28 16 29 21 30 22 31 18 32
REMARK H PARENT 18 33
ROOT
ATOM      1  C   UNL     1      16.220  17.351 -16.585  1.00  0.00     0.146 A 
ATOM      2  C   UNL     1      15.181  16.755 -15.969  1.00  0.00     0.059 A 
ATOM      3  C   UNL     1      15.021  16.789 -14.514  1.00  0.00     0.002 A 
ATOM      4  C   UNL     1      15.930  17.479 -13.793  1.00  0.00     0.101 A 
ATOM      5  N   UNL     1      16.975  18.124 -14.448  1.00  0.00    -0.302 N 
ATOM      6  C   UNL     1      17.998  18.884 -13.936  1.00  0.00     0.204 A 
ATOM      7  N   UNL     1      18.791  19.348 -14.877  1.00  0.00    -0.244 NA
ATOM      8  C   UNL     1      18.265  18.877 -16.054  1.00  0.00     0.143 A 
ATOM      9  C   UNL     1      17.154  18.098 -15.823  1.00  0.00     0.107 A 
ENDROOT
BRANCH   1  10
ATOM     10  O   UNL     1      16.367  17.354 -17.952  1.00  0.00    -0.482 OA
BRANCH  10  11
ATOM     11  C   UNL     1      16.951  18.583 -18.446  1.00  0.00     0.246 C 
ATOM     12  N   UNL     1      15.652  18.583 -21.024  1.00  0.00    -0.333 N 
ATOM     13  C   UNL     1      15.541  19.803 -20.229  1.00  0.00     0.124 C 
ATOM     14  C   UNL     1      16.890  17.806 -20.848  1.00  0.00     0.200 C 
ATOM     15  C   UNL     1      15.788  19.549 -18.740  1.00  0.00     0.073 C 
ATOM     16  C   UNL     1      17.772  18.300 -19.703  1.00  0.00     0.301 C 
ATOM     17  F   UNL     1      18.419  19.438 -20.081  1.00  0.00    -0.201 F 
ATOM     18  F   UNL     1      18.748  17.390 -19.449  1.00  0.00    -0.201 F 
BRANCH  12  19
ATOM     19  C   UNL     1      14.779  18.418 -22.092  1.00  0.00     0.246 C 
ATOM     20  O   UNL     1      14.808  17.436 -22.831  1.00  0.00    -0.270 OA
BRANCH  19  21
ATOM     21  C   UNL     1      13.780  19.501 -22.324  1.00  0.00     0.063 C 
ATOM     22  C   UNL     1      13.049  19.518 -23.447  1.00  0.00     0.014 C 
ENDBRANCH  19  21
ENDBRANCH  12  19
ENDBRANCH  10  11
ENDBRANCH   1  10
BRANCH   3  23
ATOM     23  C   UNL     1      13.911  16.122 -13.811  1.00  0.00    -0.010 A 
ATOM     24  C   UNL     1      13.900  16.179 -12.406  1.00  0.00     0.052 A 
ATOM     25  C   UNL     1      12.869  15.452 -14.496  1.00  0.00    -0.036 A 
ATOM     26  C   UNL     1      12.869  15.579 -11.697  1.00  0.00     0.165 A 
ATOM     27  C   UNL     1      11.834  14.857 -13.749  1.00  0.00     0.053 A 
ATOM     28  C   UNL     1      11.842  14.922 -12.361  1.00  0.00     0.151 A 
ATOM     29  F   UNL     1      12.861  15.635 -10.357  1.00  0.00    -0.203 F 
BRANCH  25  30
ATOM     30  C   UNL     1      12.800  15.366 -16.006  1.00  0.00     0.033 C 
ATOM     31  C   UNL     1      11.365  15.325 -16.512  1.00  0.00     0.009 C 
ENDBRANCH  25  30
BRANCH  28  32
ATOM     32  O   UNL     1      10.821  14.332 -11.672  1.00  0.00    -0.505 OA
ATOM     33  H   UNL     1      10.999  14.476 -10.723  1.00  0.00     0.293 HD
ENDBRANCH  28  32
ENDBRANCH   3  23
TORSDOF 7
ENDMDL
MODEL 8
REMARK minimizedAffinity -8.30531883
REMARK CNNscore 0.233523294
REMARK CNNaffinity 6.92862654
REMARK SMILES C=CC(=O)N1CC[C@@H](Oc2cc(-c3cc(F)c(O)cc3CC)cn3cncc23)C(F)(F)C1
REMARK SMILES IDX 10 1 11 2 12 3 23 4 24 5 25 6 26 7 27 8 28 9 9 10 8 11 5 12
REMARK SMILES IDX 6 13 32 14 7 15 29 16 30 17 31 18 3 19 4 20 2 21 1 22 13 23
REMARK SMILES IDX 14 24 20 25 15 26 19 27 17 28 16 29 21 30 22 31 18 32
REMARK H PARENT 18 33
ROOT
ATOM      1  C   UNL     1      14.822  15.653 -16.281  1.00  0.00     0.146 A 
ATOM      2  C   UNL     1      13.900  15.068 -17.070  1.00  0.00     0.059 A 
ATOM      3  C   UNL     1      12.592  14.656 -16.558  1.00  0.00     0.002 A 
ATOM      4  C   UNL     1      12.307  14.919 -15.265  1.00  0.00     0.101 A 
ATOM      5  N   UNL     1      13.255  15.560 -14.472  1.00  0.00    -0.302 N 
ATOM      6  C   UNL     1      13.189  15.936 -13.154  1.00  0.00     0.204 A 
ATOM      7  N   UNL     1      14.285  16.542 -12.755  1.00  0.00    -0.244 NA
ATOM      8  C   UNL     1      15.103  16.569 -13.857  1.00  0.00     0.143 A 
ATOM      9  C   UNL     1      14.504  15.950 -14.931  1.00  0.00     0.107 A 
ENDROOT
BRANCH   1  10
ATOM     10  O   UNL     1      16.043  16.072 -16.755  1.00  0.00    -0.482 OA
BRANCH  10  11
ATOM     11  C   UNL     1      15.953  17.305 -17.507  1.00  0.00     0.246 C 
ATOM     12  N   UNL     1      18.737  17.470 -18.253  1.00  0.00    -0.333 N 
ATOM     13  C   UNL     1      17.757  17.586 -19.330  1.00  0.00     0.124 C 
ATOM     14  C   UNL     1      18.318  17.983 -16.938  1.00  0.00     0.200 C 
ATOM     15  C   UNL     1      16.401  16.990 -18.947  1.00  0.00     0.073 C 
ATOM     16  C   UNL     1      16.842  18.371 -16.867  1.00  0.00     0.301 C 
ATOM     17  F   UNL     1      16.649  19.559 -17.507  1.00  0.00    -0.201 F 
ATOM     18  F   UNL     1      16.485  18.587 -15.575  1.00  0.00    -0.201 F 
BRANCH  12  19
ATOM     19  C   UNL     1      20.057  17.206 -18.597  1.00  0.00     0.246 C 
ATOM     20  O   UNL     1      20.510  17.426 -19.718  1.00  0.00    -0.270 OA
BRANCH  19  21
ATOM     21  C   UNL     1      20.929  16.625 -17.537  1.00  0.00     0.063 C 
ATOM     22  C   UNL     1      21.907  15.767 -17.861  1.00  0.00     0.014 C 
ENDBRANCH  19  21
ENDBRANCH  12  19
ENDBRANCH  10  11
ENDBRANCH   1  10
BRANCH   3  23
ATOM     23  C   UNL     1      11.576  13.989 -17.391  1.00  0.00    -0.010 A 
ATOM     24  C   UNL     1      10.237  14.055 -16.964  1.00  0.00     0.052 A 
ATOM     25  C   UNL     1      11.899  13.312 -18.590  1.00  0.00    -0.036 A 
ATOM     26  C   UNL     1       9.240  13.455 -17.720  1.00  0.00     0.165 A 
ATOM     27  C   UNL     1      10.864  12.717 -19.338  1.00  0.00     0.053 A 
ATOM     28  C   UNL     1       9.549  12.791 -18.899  1.00  0.00     0.151 A 
ATOM     29  F   UNL     1       7.964  13.518 -17.311  1.00  0.00    -0.203 F 
BRANCH  25  30
ATOM     30  C   UNL     1      13.312  13.217 -19.125  1.00  0.00     0.033 C 
ATOM     31  C   UNL     1      13.356  12.610 -20.521  1.00  0.00     0.009 C 
ENDBRANCH  25  30
BRANCH  28  32
ATOM     32  O   UNL     1       8.574  12.201 -19.652  1.00  0.00    -0.505 OA
ATOM     33  H   UNL     1       7.728  12.350 -19.188  1.00  0.00     0.293 HD
ENDBRANCH  28  32
ENDBRANCH   3  23
TORSDOF 7
ENDMDL
MODEL 9
REMARK minimizedAffinity -7.4641552
REMARK CNNscore 0.224866509
REMARK CNNaffinity 5.59924316
REMARK SMILES C=CC(=O)N1CC[C@@H](Oc2cc(-c3cc(F)c(O)cc3CC)cn3cncc23)C(F)(F)C1
REMARK SMILES IDX 10 1 11 2 12 3 23 4 24 5 25 6 26 7 27 8 28 9 9 10 8 11 5 12
REMARK SMILES IDX 6 13 32 14 7 15 29 16 30 17 31 18 3 19 4 20 2 21 1 22 13 23
REMARK SMILES IDX 14 24 20 25 15 26 19 27 17 28 16 29 21 30 22 31 18 32
REMARK H PARENT 18 33
ROOT
ATOM      1  C   UNL     1      16.104  17.031 -16.837  1.00  0.00     0.146 A 
ATOM      2  C   UNL     1      15.005  16.301 -16.566  1.00  0.00     0.059 A 
ATOM      3  C   UNL     1      14.498  16.143 -15.201  1.00  0.00     0.002 A 
ATOM      4  C   UNL     1      15.143  16.791 -14.208  1.00  0.00     0.101 A 
ATOM      5  N   UNL     1      16.253  17.573 -14.509  1.00  0.00    -0.302 N 
ATOM      6  C   UNL     1      17.052  18.322 -13.681  1.00  0.00     0.204 A 
ATOM      7  N   UNL     1      18.003  18.947 -14.340  1.00  0.00    -0.244 NA
ATOM      8  C   UNL     1      17.820  18.597 -15.654  1.00  0.00     0.143 A 
ATOM      9  C   UNL     1      16.759  17.730 -15.791  1.00  0.00     0.107 A 
ENDROOT
BRANCH   1  10
ATOM     10  O   UNL     1      16.574  17.213 -18.116  1.00  0.00    -0.482 OA
BRANCH  10  11
ATOM     11  C   UNL     1      17.058  18.559 -18.344  1.00  0.00     0.246 C 
ATOM     12  N   UNL     1      16.370  18.714 -21.143  1.00  0.00    -0.333 N 
ATOM     13  C   UNL     1      15.903  19.801 -20.288  1.00  0.00     0.124 C 
ATOM     14  C   UNL     1      17.643  18.086 -20.754  1.00  0.00     0.200 C 
ATOM     15  C   UNL     1      15.854  19.398 -18.812  1.00  0.00     0.073 C 
ATOM     16  C   UNL     1      18.168  18.541 -19.394  1.00  0.00     0.301 C 
ATOM     17  F   UNL     1      18.700  19.791 -19.504  1.00  0.00    -0.201 F 
ATOM     18  F   UNL     1      19.192  17.739 -19.004  1.00  0.00    -0.201 F 
BRANCH  12  19
ATOM     19  C   UNL     1      15.787  18.573 -22.397  1.00  0.00     0.246 C 
ATOM     20  O   UNL     1      16.259  19.081 -23.412  1.00  0.00    -0.270 OA
BRANCH  19  21
ATOM     21  C   UNL     1      14.534  17.770 -22.474  1.00  0.00     0.063 C 
ATOM     22  C   UNL     1      13.802  17.764 -23.597  1.00  0.00     0.014 C 
ENDBRANCH  19  21
ENDBRANCH  12  19
ENDBRANCH  10  11
ENDBRANCH   1  10
BRANCH   3  23
ATOM     23  C   UNL     1      13.315  15.329 -14.872  1.00  0.00    -0.010 A 
ATOM     24  C   UNL     1      12.772  14.526 -15.891  1.00  0.00     0.052 A 
ATOM     25  C   UNL     1      12.730  15.321 -13.584  1.00  0.00    -0.036 A 
ATOM     26  C   UNL     1      11.666  13.730 -15.630  1.00  0.00     0.165 A 
ATOM     27  C   UNL     1      11.611  14.499 -13.347  1.00  0.00     0.053 A 
ATOM     28  C   UNL     1      11.088  13.715 -14.367  1.00  0.00     0.151 A 
ATOM     29  F   UNL     1      11.149  12.965 -16.602  1.00  0.00    -0.203 F 
BRANCH  25  30
ATOM     30  C   UNL     1      13.270  16.141 -12.431  1.00  0.00     0.033 C 
ATOM     31  C   UNL     1      12.972  15.499 -11.083  1.00  0.00     0.009 C 
ENDBRANCH  25  30
BRANCH  28  32
ATOM     32  O   UNL     1      10.002  12.931 -14.099  1.00  0.00    -0.505 OA
ATOM     33  H   UNL     1       9.778  12.464 -14.926  1.00  0.00     0.293 HD
ENDBRANCH  28  32
ENDBRANCH   3  23
TORSDOF 7
ENDMDL
