MODEL 1
REMARK minimizedAffinity -8.36339664
REMARK CNNscore 0.700375617
REMARK CNNaffinity 7.47622728
REMARK SMILES C=CC(=O)N1CCC(Oc2cc(-c3cc(F)c(O)cc3CC)cn3cncc23)CC1
REMARK SMILES IDX 10 1 11 2 12 3 23 4 24 5 25 6 26 7 27 8 28 9 9 10 8 11 3 12
REMARK SMILES IDX 4 13 5 14 6 15 30 16 7 17 29 18 2 19 1 20 13 21 14 22 20 23
REMARK SMILES IDX 15 24 19 25 17 26 16 27 21 28 22 29 18 30
REMARK H PARENT 18 31
ROOT
ATOM      1  C   UNL     1      14.180  15.781 -14.819  1.00  0.00     0.146 A 
ATOM      2  C   UNL     1      13.403  15.244 -15.788  1.00  0.00     0.059 A 
ATOM      3  C   UNL     1      12.089  14.657 -15.504  1.00  0.00     0.002 A 
ATOM      4  C   UNL     1      11.648  14.674 -14.230  1.00  0.00     0.101 A 
ATOM      5  N   UNL     1      12.449  15.230 -13.240  1.00  0.00    -0.302 N 
ATOM      6  C   UNL     1      12.221  15.356 -11.892  1.00  0.00     0.204 A 
ATOM      7  N   UNL     1      13.223  15.940 -11.270  1.00  0.00    -0.244 NA
ATOM      8  C   UNL     1      14.144  16.210 -12.252  1.00  0.00     0.143 A 
ATOM      9  C   UNL     1      13.695  15.782 -13.482  1.00  0.00     0.107 A 
ENDROOT
BRANCH   1  10
ATOM     10  O   UNL     1      15.418  16.354 -14.948  1.00  0.00    -0.488 OA
BRANCH  10  11
ATOM     11  C   UNL     1      15.643  17.348 -15.957  1.00  0.00     0.177 C 
ATOM     12  C   UNL     1      19.075  18.649 -18.265  1.00  0.00     0.245 C 
ATOM     13  O   UNL     1      20.135  18.972 -17.734  1.00  0.00    -0.270 OA
ATOM     14  N   UNL     1      17.966  18.203 -17.564  1.00  0.00    -0.339 N 
ATOM     15  C   UNL     1      18.035  18.199 -16.105  1.00  0.00     0.123 C 
ATOM     16  C   UNL     1      16.818  17.532 -18.179  1.00  0.00     0.123 C 
ATOM     17  C   UNL     1      16.659  18.395 -15.478  1.00  0.00     0.067 C 
ATOM     18  C   UNL     1      16.117  16.598 -17.207  1.00  0.00     0.067 C 
BRANCH  12  19
ATOM     19  C   UNL     1      18.985  18.710 -19.744  1.00  0.00     0.063 C 
ATOM     20  C   UNL     1      19.776  17.975 -20.536  1.00  0.00     0.014 C 
ENDBRANCH  12  19
ENDBRANCH  10  11
ENDBRANCH   1  10
BRANCH   3  21
ATOM     21  C   UNL     1      11.231  14.067 -16.547  1.00  0.00    -0.010 A 
ATOM     22  C   UNL     1       9.851  14.008 -16.297  1.00  0.00     0.052 A 
ATOM     23  C   UNL     1      11.746  13.582 -17.772  1.00  0.00    -0.036 A 
ATOM     24  C   UNL     1       8.997  13.472 -17.252  1.00  0.00     0.165 A 
ATOM     25  C   UNL     1      10.855  13.049 -18.725  1.00  0.00     0.053 A 
ATOM     26  C   UNL     1       9.494  12.995 -18.458  1.00  0.00     0.151 A 
ATOM     27  F   UNL     1       7.679  13.416 -17.012  1.00  0.00    -0.203 F 
BRANCH  23  28
ATOM     28  C   UNL     1      13.217  13.637 -18.124  1.00  0.00     0.033 C 
ATOM     29  C   UNL     1      13.471  14.428 -19.398  1.00  0.00     0.009 C 
ENDBRANCH  23  28
BRANCH  26  30
ATOM     30  O   UNL     1       8.662  12.470 -19.403  1.00  0.00    -0.505 OA
ATOM     31  H   UNL     1       7.756  12.515 -19.043  1.00  0.00     0.293 HD
ENDBRANCH  26  30
ENDBRANCH   3  21
TORSDOF 6
ENDMDL
MODEL 2
REMARK minimizedAffinity -9.68317986
REMARK CNNscore 0.41259557
REMARK CNNaffinity 6.88368559
REMARK SMILES C=CC(=O)N1CCC(Oc2cc(-c3cc(F)c(O)cc3CC)cn3cncc23)CC1
REMARK SMILES IDX 10 1 11 2 12 3 23 4 24 5 25 6 26 7 27 8 28 9 9 10 8 11 3 12
REMARK SMILES IDX 4 13 5 14 6 15 30 16 7 17 29 18 2 19 1 20 13 21 14 22 20 23
REMARK SMILES IDX 15 24 19 25 17 26 16 27 21 28 22 29 18 30
REMARK H PARENT 18 31
ROOT
ATOM      1  C   UNL     1      11.595  14.455 -17.815  1.00  0.00     0.146 A 
ATOM      2  C   UNL     1      12.026  14.747 -16.567  1.00  0.00     0.059 A 
ATOM      3  C   UNL     1      11.234  14.435 -15.372  1.00  0.00     0.002 A 
ATOM      4  C   UNL     1      10.045  13.824 -15.540  1.00  0.00     0.101 A 
ATOM      5  N   UNL     1       9.609  13.524 -16.825  1.00  0.00    -0.302 N 
ATOM      6  C   UNL     1       8.450  12.918 -17.242  1.00  0.00     0.204 A 
ATOM      7  N   UNL     1       8.389  12.808 -18.551  1.00  0.00    -0.244 NA
ATOM      8  C   UNL     1       9.558  13.362 -19.011  1.00  0.00     0.143 A 
ATOM      9  C   UNL     1      10.334  13.815 -17.968  1.00  0.00     0.107 A 
ENDROOT
BRANCH   1  10
ATOM     10  O   UNL     1      12.230  14.693 -19.006  1.00  0.00    -0.488 OA
BRANCH  10  11
ATOM     11  C   UNL     1      11.977  13.843 -20.132  1.00  0.00     0.177 C 
ATOM     12  C   UNL     1      13.927  13.142 -23.941  1.00  0.00     0.245 C 
ATOM     13  O   UNL     1      14.198  14.058 -24.715  1.00  0.00    -0.270 OA
ATOM     14  N   UNL     1      13.329  13.328 -22.705  1.00  0.00    -0.339 N 
ATOM     15  C   UNL     1      12.921  14.683 -22.340  1.00  0.00     0.123 C 
ATOM     16  C   UNL     1      13.277  12.310 -21.654  1.00  0.00     0.123 C 
ATOM     17  C   UNL     1      11.721  14.672 -21.399  1.00  0.00     0.067 C 
ATOM     18  C   UNL     1      13.200  12.927 -20.267  1.00  0.00     0.067 C 
BRANCH  12  19
ATOM     19  C   UNL     1      14.289  11.760 -24.338  1.00  0.00     0.063 C 
ATOM     20  C   UNL     1      13.372  10.875 -24.751  1.00  0.00     0.014 C 
ENDBRANCH  12  19
ENDBRANCH  10  11
ENDBRANCH   1  10
BRANCH   3  21
ATOM     21  C   UNL     1      11.688  14.747 -14.004  1.00  0.00    -0.010 A 
ATOM     22  C   UNL     1      10.895  14.296 -12.937  1.00  0.00     0.052 A 
ATOM     23  C   UNL     1      12.882  15.459 -13.742  1.00  0.00    -0.036 A 
ATOM     24  C   UNL     1      11.283  14.554 -11.630  1.00  0.00     0.165 A 
ATOM     25  C   UNL     1      13.254  15.700 -12.405  1.00  0.00     0.053 A 
ATOM     26  C   UNL     1      12.454  15.250 -11.363  1.00  0.00     0.151 A 
ATOM     27  F   UNL     1      10.525  14.123 -10.611  1.00  0.00    -0.203 F 
BRANCH  23  28
ATOM     28  C   UNL     1      13.801  15.952 -14.839  1.00  0.00     0.033 C 
ATOM     29  C   UNL     1      15.003  16.701 -14.283  1.00  0.00     0.009 C 
ENDBRANCH  23  28
BRANCH  26  30
ATOM     30  O   UNL     1      12.846  15.504 -10.080  1.00  0.00    -0.505 OA
ATOM     31  H   UNL     1      12.169  15.118  -9.493  1.00  0.00     0.293 HD
ENDBRANCH  26  30
ENDBRANCH   3  21
TORSDOF 6
ENDMDL
MODEL 3
REMARK minimizedAffinity -9.19207191
REMARK CNNscore 0.390473366
REMARK CNNaffinity 6.89863825
REMARK SMILES C=CC(=O)N1CCC(Oc2cc(-c3cc(F)c(O)cc3CC)cn3cncc23)CC1
REMARK SMILES IDX 10 1 11 2 12 3 23 4 24 5 25 6 26 7 27 8 28 9 9 10 8 11 3 12
REMARK SMILES IDX 4 13 5 14 6 15 30 16 7 17 29 18 2 19 1 20 13 21 14 22 20 23
REMARK SMILES IDX 15 24 19 25 17 26 16 27 21 28 22 29 18 30
REMARK H PARENT 18 31
ROOT
ATOM      1  C   UNL     1      11.551  14.452 -17.818  1.00  0.00     0.146 A 
ATOM      2  C   UNL     1      11.921  14.763 -16.555  1.00  0.00     0.059 A 
ATOM      3  C   UNL     1      11.192  14.269 -15.381  1.00  0.00     0.002 A 
ATOM      4  C   UNL     1      10.129  13.467 -15.585  1.00  0.00     0.101 A 
ATOM      5  N   UNL     1       9.756  13.149 -16.886  1.00  0.00    -0.302 N 
ATOM      6  C   UNL     1       8.722  12.367 -17.338  1.00  0.00     0.204 A 
ATOM      7  N   UNL     1       8.685  12.302 -18.651  1.00  0.00    -0.244 NA
ATOM      8  C   UNL     1       9.741  13.070 -19.077  1.00  0.00     0.143 A 
ATOM      9  C   UNL     1      10.422  13.609 -18.009  1.00  0.00     0.107 A 
ENDROOT
BRANCH   1  10
ATOM     10  O   UNL     1      12.138  14.846 -18.992  1.00  0.00    -0.488 OA
BRANCH  10  11
ATOM     11  C   UNL     1      13.547  14.662 -19.183  1.00  0.00     0.177 C 
ATOM     12  C   UNL     1      16.965  17.308 -19.525  1.00  0.00     0.245 C 
ATOM     13  O   UNL     1      16.995  18.236 -20.330  1.00  0.00    -0.270 OA
ATOM     14  N   UNL     1      15.882  16.458 -19.368  1.00  0.00    -0.339 N 
ATOM     15  C   UNL     1      14.745  16.625 -20.270  1.00  0.00     0.123 C 
ATOM     16  C   UNL     1      15.702  15.556 -18.228  1.00  0.00     0.123 C 
ATOM     17  C   UNL     1      14.012  15.307 -20.496  1.00  0.00     0.067 C 
ATOM     18  C   UNL     1      14.234  15.270 -17.955  1.00  0.00     0.067 C 
BRANCH  12  19
ATOM     19  C   UNL     1      18.144  17.102 -18.649  1.00  0.00     0.063 C 
ATOM     20  C   UNL     1      19.192  17.936 -18.659  1.00  0.00     0.014 C 
ENDBRANCH  12  19
ENDBRANCH  10  11
ENDBRANCH   1  10
BRANCH   3  21
ATOM     21  C   UNL     1      11.580  14.599 -13.998  1.00  0.00    -0.010 A 
ATOM     22  C   UNL     1      10.768  14.114 -12.961  1.00  0.00     0.052 A 
ATOM     23  C   UNL     1      12.732  15.362 -13.691  1.00  0.00    -0.036 A 
ATOM     24  C   UNL     1      11.095  14.387 -11.640  1.00  0.00     0.165 A 
ATOM     25  C   UNL     1      13.043  15.618 -12.342  1.00  0.00     0.053 A 
ATOM     26  C   UNL     1      12.225  15.133 -11.330  1.00  0.00     0.151 A 
ATOM     27  F   UNL     1      10.319  13.923 -10.650  1.00  0.00    -0.203 F 
BRANCH  23  28
ATOM     28  C   UNL     1      13.670  15.895 -14.753  1.00  0.00     0.033 C 
ATOM     29  C   UNL     1      14.876  16.599 -14.149  1.00  0.00     0.009 C 
ENDBRANCH  23  28
BRANCH  26  30
ATOM     30  O   UNL     1      12.557  15.403 -10.034  1.00  0.00    -0.505 OA
ATOM     31  H   UNL     1      11.875  14.987  -9.472  1.00  0.00     0.293 HD
ENDBRANCH  26  30
ENDBRANCH   3  21
TORSDOF 6
ENDMDL
MODEL 4
REMARK minimizedAffinity -9.00409508
REMARK CNNscore 0.373095334
REMARK CNNaffinity 7.04073
REMARK SMILES C=CC(=O)N1CCC(Oc2cc(-c3cc(F)c(O)cc3CC)cn3cncc23)CC1
REMARK SMILES IDX 10 1 11 2 12 3 23 4 24 5 25 6 26 7 27 8 28 9 9 10 8 11 3 12
REMARK SMILES IDX 4 13 5 14 6 15 30 16 7 17 29 18 2 19 1 20 13 21 14 22 20 23
REMARK SMILES IDX 15 24 19 25 17 26 16 27 21 28 22 29 18 30
REMARK H PARENT 18 31
ROOT
ATOM      1  C   UNL     1      12.090  15.353 -13.788  1.00  0.00     0.146 A 
ATOM      2  C   UNL     1      11.656  14.899 -14.986  1.00  0.00     0.059 A 
ATOM      3  C   UNL     1      10.629  13.857 -15.103  1.00  0.00     0.002 A 
ATOM      4  C   UNL     1      10.101  13.355 -13.969  1.00  0.00     0.101 A 
ATOM      5  N   UNL     1      10.550  13.828 -12.741  1.00  0.00    -0.302 N 
ATOM      6  C   UNL     1      10.172  13.474 -11.470  1.00  0.00     0.204 A 
ATOM      7  N   UNL     1      10.829  14.145 -10.550  1.00  0.00    -0.244 NA
ATOM      8  C   UNL     1      11.671  14.977 -11.247  1.00  0.00     0.143 A 
ATOM      9  C   UNL     1      11.522  14.804 -12.605  1.00  0.00     0.107 A 
ENDROOT
BRANCH   1  10
ATOM     10  O   UNL     1      13.038  16.311 -13.541  1.00  0.00    -0.488 OA
BRANCH  10  11
ATOM     11  C   UNL     1      14.412  16.056 -13.864  1.00  0.00     0.177 C 
ATOM     12  C   UNL     1      17.397  18.021 -16.318  1.00  0.00     0.245 C 
ATOM     13  O   UNL     1      17.191  18.306 -17.496  1.00  0.00    -0.270 OA
ATOM     14  N   UNL     1      16.460  17.418 -15.495  1.00  0.00    -0.339 N 
ATOM     15  C   UNL     1      15.184  17.022 -16.086  1.00  0.00     0.123 C 
ATOM     16  C   UNL     1      16.569  17.349 -14.036  1.00  0.00     0.123 C 
ATOM     17  C   UNL     1      14.586  15.817 -15.370  1.00  0.00     0.067 C 
ATOM     18  C   UNL     1      15.206  17.270 -13.367  1.00  0.00     0.067 C 
BRANCH  12  19
ATOM     19  C   UNL     1      18.715  18.371 -15.734  1.00  0.00     0.063 C 
ATOM     20  C   UNL     1      19.847  17.768 -16.119  1.00  0.00     0.014 C 
ENDBRANCH  12  19
ENDBRANCH  10  11
ENDBRANCH   1  10
BRANCH   3  21
ATOM     21  C   UNL     1      10.145  13.350 -16.399  1.00  0.00    -0.010 A 
ATOM     22  C   UNL     1       8.762  13.397 -16.641  1.00  0.00     0.052 A 
ATOM     23  C   UNL     1      11.015  12.841 -17.392  1.00  0.00    -0.036 A 
ATOM     24  C   UNL     1       8.255  12.942 -17.850  1.00  0.00     0.165 A 
ATOM     25  C   UNL     1      10.473  12.392 -18.612  1.00  0.00     0.053 A 
ATOM     26  C   UNL     1       9.103  12.443 -18.830  1.00  0.00     0.151 A 
ATOM     27  F   UNL     1       6.935  12.987 -18.080  1.00  0.00    -0.203 F 
BRANCH  23  28
ATOM     28  C   UNL     1      12.517  12.783 -17.215  1.00  0.00     0.033 C 
ATOM     29  C   UNL     1      13.241  13.734 -18.156  1.00  0.00     0.009 C 
ENDBRANCH  23  28
BRANCH  26  30
ATOM     30  O   UNL     1       8.613  11.997 -20.024  1.00  0.00    -0.505 OA
ATOM     31  H   UNL     1       7.644  12.109 -19.995  1.00  0.00     0.293 HD
ENDBRANCH  26  30
ENDBRANCH   3  21
TORSDOF 6
ENDMDL
MODEL 5
REMARK minimizedAffinity -6.40254116
REMARK CNNscore 0.297420353
REMARK CNNaffinity 7.07817316
REMARK SMILES C=CC(=O)N1CCC(Oc2cc(-c3cc(F)c(O)cc3CC)cn3cncc23)CC1
REMARK SMILES IDX 10 1 11 2 12 3 23 4 24 5 25 6 26 7 27 8 28 9 9 10 8 11 3 12
REMARK SMILES IDX 4 13 5 14 6 15 30 16 7 17 29 18 2 19 1 20 13 21 14 22 20 23
REMARK SMILES IDX 15 24 19 25 17 26 16 27 21 28 22 29 18 30
REMARK H PARENT 18 31
ROOT
ATOM      1  C   UNL     1      14.317  15.332 -15.391  1.00  0.00     0.146 A 
ATOM      2  C   UNL     1      13.738  14.754 -16.468  1.00  0.00     0.059 A 
ATOM      3  C   UNL     1      12.330  14.341 -16.474  1.00  0.00     0.002 A 
ATOM      4  C   UNL     1      11.597  14.566 -15.365  1.00  0.00     0.101 A 
ATOM      5  N   UNL     1      12.197  15.164 -14.262  1.00  0.00    -0.302 N 
ATOM      6  C   UNL     1      11.666  15.485 -13.038  1.00  0.00     0.204 A 
ATOM      7  N   UNL     1      12.552  16.042 -12.241  1.00  0.00    -0.244 NA
ATOM      8  C   UNL     1      13.712  16.091 -12.976  1.00  0.00     0.143 A 
ATOM      9  C   UNL     1      13.525  15.554 -14.230  1.00  0.00     0.107 A 
ENDROOT
BRANCH   1  10
ATOM     10  O   UNL     1      15.612  15.758 -15.254  1.00  0.00    -0.488 OA
BRANCH  10  11
ATOM     11  C   UNL     1      16.016  17.008 -15.828  1.00  0.00     0.177 C 
ATOM     12  C   UNL     1      19.821  18.832 -16.826  1.00  0.00     0.245 C 
ATOM     13  O   UNL     1      20.732  18.933 -16.007  1.00  0.00    -0.270 OA
ATOM     14  N   UNL     1      18.602  18.233 -16.553  1.00  0.00    -0.339 N 
ATOM     15  C   UNL     1      18.358  17.770 -15.189  1.00  0.00     0.123 C 
ATOM     16  C   UNL     1      17.634  17.833 -17.577  1.00  0.00     0.123 C 
ATOM     17  C   UNL     1      16.874  17.813 -14.841  1.00  0.00     0.067 C 
ATOM     18  C   UNL     1      16.771  16.668 -17.119  1.00  0.00     0.067 C 
BRANCH  12  19
ATOM     19  C   UNL     1      20.048  19.356 -18.195  1.00  0.00     0.063 C 
ATOM     20  C   UNL     1      20.522  20.589 -18.416  1.00  0.00     0.014 C 
ENDBRANCH  12  19
ENDBRANCH  10  11
ENDBRANCH   1  10
BRANCH   3  21
ATOM     21  C   UNL     1      11.683  13.709 -17.638  1.00  0.00    -0.010 A 
ATOM     22  C   UNL     1      11.674  14.425 -18.846  1.00  0.00     0.052 A 
ATOM     23  C   UNL     1      11.096  12.423 -17.578  1.00  0.00    -0.036 A 
ATOM     24  C   UNL     1      11.088  13.870 -19.975  1.00  0.00     0.165 A 
ATOM     25  C   UNL     1      10.514  11.883 -18.741  1.00  0.00     0.053 A 
ATOM     26  C   UNL     1      10.512  12.608 -19.925  1.00  0.00     0.151 A 
ATOM     27  F   UNL     1      11.080  14.554 -21.128  1.00  0.00    -0.203 F 
BRANCH  23  28
ATOM     28  C   UNL     1      11.091  11.581 -16.320  1.00  0.00     0.033 C 
ATOM     29  C   UNL     1      12.497  11.204 -15.879  1.00  0.00     0.009 C 
ENDBRANCH  23  28
BRANCH  26  30
ATOM     30  O   UNL     1       9.936  12.052 -21.031  1.00  0.00    -0.505 OA
ATOM     31  H   UNL     1      10.029  12.699 -21.756  1.00  0.00     0.293 HD
ENDBRANCH  26  30
ENDBRANCH   3  21
TORSDOF 6
ENDMDL
MODEL 6
REMARK minimizedAffinity -7.93184805
REMARK CNNscore 0.282462686
REMARK CNNaffinity 7.15571833
REMARK SMILES C=CC(=O)N1CCC(Oc2cc(-c3cc(F)c(O)cc3CC)cn3cncc23)CC1
REMARK SMILES IDX 10 1 11 2 12 3 23 4 24 5 25 6 26 7 27 8 28 9 9 10 8 11 3 12
REMARK SMILES IDX 4 13 5 14 6 15 30 16 7 17 29 18 2 19 1 20 13 21 14 22 20 23
REMARK SMILES IDX 15 24 19 25 17 26 16 27 21 28 22 29 18 30
REMARK H PARENT 18 31
ROOT
ATOM      1  C   UNL     1      14.608  16.112 -15.421  1.00  0.00     0.146 A 
ATOM      2  C   UNL     1      14.128  15.487 -16.521  1.00  0.00     0.059 A 
ATOM      3  C   UNL     1      12.927  14.646 -16.482  1.00  0.00     0.002 A 
ATOM      4  C   UNL     1      12.281  14.513 -15.306  1.00  0.00     0.101 A 
ATOM      5  N   UNL     1      12.778  15.161 -14.181  1.00  0.00    -0.302 N 
ATOM      6  C   UNL     1      12.304  15.173 -12.892  1.00  0.00     0.204 A 
ATOM      7  N   UNL     1      13.051  15.905 -12.094  1.00  0.00    -0.244 NA
ATOM      8  C   UNL     1      14.054  16.396 -12.894  1.00  0.00     0.143 A 
ATOM      9  C   UNL     1      13.913  15.953 -14.190  1.00  0.00     0.107 A 
ENDROOT
BRANCH   1  10
ATOM     10  O   UNL     1      15.713  16.917 -15.321  1.00  0.00    -0.488 OA
BRANCH  10  11
ATOM     11  C   UNL     1      16.063  17.786 -16.406  1.00  0.00     0.177 C 
ATOM     12  C   UNL     1      19.448  18.116 -19.095  1.00  0.00     0.245 C 
ATOM     13  O   UNL     1      20.604  18.190 -18.685  1.00  0.00    -0.270 OA
ATOM     14  N   UNL     1      18.343  17.983 -18.269  1.00  0.00    -0.339 N 
ATOM     15  C   UNL     1      18.562  18.017 -16.825  1.00  0.00     0.123 C 
ATOM     16  C   UNL     1      17.011  17.592 -18.734  1.00  0.00     0.123 C 
ATOM     17  C   UNL     1      17.346  18.569 -16.089  1.00  0.00     0.067 C 
ATOM     18  C   UNL     1      16.211  16.895 -17.645  1.00  0.00     0.067 C 
BRANCH  12  19
ATOM     19  C   UNL     1      19.222  18.140 -20.561  1.00  0.00     0.063 C 
ATOM     20  C   UNL     1      20.229  18.037 -21.439  1.00  0.00     0.014 C 
ENDBRANCH  12  19
ENDBRANCH  10  11
ENDBRANCH   1  10
BRANCH   3  21
ATOM     21  C   UNL     1      12.391  13.956 -17.670  1.00  0.00    -0.010 A 
ATOM     22  C   UNL     1      13.314  13.416 -18.580  1.00  0.00     0.052 A 
ATOM     23  C   UNL     1      11.003  13.814 -17.906  1.00  0.00    -0.036 A 
ATOM     24  C   UNL     1      12.861  12.747 -19.709  1.00  0.00     0.165 A 
ATOM     25  C   UNL     1      10.574  13.125 -19.057  1.00  0.00     0.053 A 
ATOM     26  C   UNL     1      11.501  12.601 -19.947  1.00  0.00     0.151 A 
ATOM     27  F   UNL     1      13.743  12.231 -20.577  1.00  0.00    -0.203 F 
BRANCH  23  28
ATOM     28  C   UNL     1       9.951  14.346 -16.958  1.00  0.00     0.033 C 
ATOM     29  C   UNL     1       8.552  13.885 -17.341  1.00  0.00     0.009 C 
ENDBRANCH  23  28
BRANCH  26  30
ATOM     30  O   UNL     1      11.047  11.941 -21.053  1.00  0.00    -0.505 OA
ATOM     31  H   UNL     1      11.832  11.649 -21.553  1.00  0.00     0.293 HD
ENDBRANCH  26  30
ENDBRANCH   3  21
TORSDOF 6
ENDMDL
MODEL 7
REMARK minimizedAffinity -9.31675053
REMARK CNNscore 0.279981196
REMARK CNNaffinity 6.73493242
REMARK SMILES C=CC(=O)N1CCC(Oc2cc(-c3cc(F)c(O)cc3CC)cn3cncc23)CC1
REMARK SMILES IDX 10 1 11 2 12 3 23 4 24 5 25 6 26 7 27 8 28 9 9 10 8 11 3 12
REMARK SMILES IDX 4 13 5 14 6 15 30 16 7 17 29 18 2 19 1 20 13 21 14 22 20 23
REMARK SMILES IDX 15 24 19 25 17 26 16 27 21 28 22 29 18 30
REMARK H PARENT 18 31
ROOT
ATOM      1  C   UNL     1      11.243  13.011 -17.766  1.00  0.00     0.146 A 
ATOM      2  C   UNL     1      11.799  13.491 -16.630  1.00  0.00     0.059 A 
ATOM      3  C   UNL     1      10.992  14.013 -15.522  1.00  0.00     0.002 A 
ATOM      4  C   UNL     1       9.650  13.993 -15.650  1.00  0.00     0.101 A 
ATOM      5  N   UNL     1       9.084  13.495 -16.818  1.00  0.00    -0.302 N 
ATOM      6  C   UNL     1       7.764  13.378 -17.176  1.00  0.00     0.204 A 
ATOM      7  N   UNL     1       7.618  12.857 -18.375  1.00  0.00    -0.244 NA
ATOM      8  C   UNL     1       8.896  12.620 -18.820  1.00  0.00     0.143 A 
ATOM      9  C   UNL     1       9.825  13.005 -17.880  1.00  0.00     0.107 A 
ENDROOT
BRANCH   1  10
ATOM     10  O   UNL     1      11.878  12.502 -18.869  1.00  0.00    -0.488 OA
BRANCH  10  11
ATOM     11  C   UNL     1      13.046  13.154 -19.384  1.00  0.00     0.177 C 
ATOM     12  C   UNL     1      13.994  15.313 -23.022  1.00  0.00     0.245 C 
ATOM     13  O   UNL     1      13.789  14.838 -24.137  1.00  0.00    -0.270 OA
ATOM     14  N   UNL     1      13.680  14.666 -21.838  1.00  0.00    -0.339 N 
ATOM     15  C   UNL     1      13.154  13.306 -21.921  1.00  0.00     0.123 C 
ATOM     16  C   UNL     1      13.631  15.322 -20.530  1.00  0.00     0.123 C 
ATOM     17  C   UNL     1      13.516  12.489 -20.686  1.00  0.00     0.067 C 
ATOM     18  C   UNL     1      12.668  14.627 -19.581  1.00  0.00     0.067 C 
BRANCH  12  19
ATOM     19  C   UNL     1      14.584  16.671 -22.938  1.00  0.00     0.063 C 
ATOM     20  C   UNL     1      15.862  16.914 -23.258  1.00  0.00     0.014 C 
ENDBRANCH  12  19
ENDBRANCH  10  11
ENDBRANCH   1  10
BRANCH   3  21
ATOM     21  C   UNL     1      11.581  14.541 -14.279  1.00  0.00    -0.010 A 
ATOM     22  C   UNL     1      10.946  14.217 -13.069  1.00  0.00     0.052 A 
ATOM     23  C   UNL     1      12.751  15.336 -14.268  1.00  0.00    -0.036 A 
ATOM     24  C   UNL     1      11.467  14.680 -11.869  1.00  0.00     0.165 A 
ATOM     25  C   UNL     1      13.260  15.787 -13.034  1.00  0.00     0.053 A 
ATOM     26  C   UNL     1      12.616  15.459 -11.849  1.00  0.00     0.151 A 
ATOM     27  F   UNL     1      10.859  14.370 -10.714  1.00  0.00    -0.203 F 
BRANCH  23  28
ATOM     28  C   UNL     1      13.505  15.703 -15.528  1.00  0.00     0.033 C 
ATOM     29  C   UNL     1      14.796  16.449 -15.225  1.00  0.00     0.009 C 
ENDBRANCH  23  28
BRANCH  26  30
ATOM     30  O   UNL     1      13.137  15.915 -10.673  1.00  0.00    -0.505 OA
ATOM     31  H   UNL     1      12.557  15.590  -9.958  1.00  0.00     0.293 HD
ENDBRANCH  26  30
ENDBRANCH   3  21
TORSDOF 6
ENDMDL
MODEL 8
REMARK minimizedAffinity -7.32989216
REMARK CNNscore 0.260923177
REMARK CNNaffinity 5.94681787
REMARK SMILES C=CC(=O)N1CCC(Oc2cc(-c3cc(F)c(O)cc3CC)cn3cncc23)CC1
REMARK SMILES IDX 10 1 11 2 12 3 23 4 24 5 25 6 26 7 27 8 28 9 9 10 8 11 3 12
REMARK SMILES IDX 4 13 5 14 6 15 30 16 7 17 29 18 2 19 1 20 13 21 14 22 20 23
REMARK SMILES IDX 15 24 19 25 17 26 16 27 21 28 22 29 18 30
REMARK H PARENT 18 31
ROOT
ATOM      1  C   UNL     1      16.513  17.077 -17.134  1.00  0.00     0.146 A 
ATOM      2  C   UNL     1      15.493  16.503 -16.455  1.00  0.00     0.059 A 
ATOM      3  C   UNL     1      15.264  16.753 -15.027  1.00  0.00     0.002 A 
ATOM      4  C   UNL     1      16.098  17.598 -14.389  1.00  0.00     0.101 A 
ATOM      5  N   UNL     1      17.141  18.187 -15.093  1.00  0.00    -0.302 N 
ATOM      6  C   UNL     1      18.108  19.063 -14.666  1.00  0.00     0.204 A 
ATOM      7  N   UNL     1      18.935  19.402 -15.630  1.00  0.00    -0.244 NA
ATOM      8  C   UNL     1      18.490  18.721 -16.737  1.00  0.00     0.143 A 
ATOM      9  C   UNL     1      17.383  17.960 -16.438  1.00  0.00     0.107 A 
ENDROOT
BRANCH   1  10
ATOM     10  O   UNL     1      16.838  16.926 -18.457  1.00  0.00    -0.488 OA
BRANCH  10  11
ATOM     11  C   UNL     1      16.164  17.710 -19.451  1.00  0.00     0.177 C 
ATOM     12  C   UNL     1      16.346  17.988 -23.774  1.00  0.00     0.245 C 
ATOM     13  O   UNL     1      17.403  18.168 -24.374  1.00  0.00    -0.270 OA
ATOM     14  N   UNL     1      16.250  17.867 -22.397  1.00  0.00    -0.339 N 
ATOM     15  C   UNL     1      17.468  18.049 -21.609  1.00  0.00     0.123 C 
ATOM     16  C   UNL     1      15.071  17.356 -21.695  1.00  0.00     0.123 C 
ATOM     17  C   UNL     1      17.158  18.593 -20.219  1.00  0.00     0.067 C 
ATOM     18  C   UNL     1      15.434  16.718 -20.364  1.00  0.00     0.067 C 
BRANCH  12  19
ATOM     19  C   UNL     1      15.101  17.863 -24.571  1.00  0.00     0.063 C 
ATOM     20  C   UNL     1      14.722  18.799 -25.450  1.00  0.00     0.014 C 
ENDBRANCH  12  19
ENDBRANCH  10  11
ENDBRANCH   1  10
BRANCH   3  21
ATOM     21  C   UNL     1      14.160  16.136 -14.271  1.00  0.00    -0.010 A 
ATOM     22  C   UNL     1      14.116  16.357 -12.886  1.00  0.00     0.052 A 
ATOM     23  C   UNL     1      13.156  15.355 -14.891  1.00  0.00    -0.036 A 
ATOM     24  C   UNL     1      13.090  15.808 -12.129  1.00  0.00     0.165 A 
ATOM     25  C   UNL     1      12.124  14.815 -14.099  1.00  0.00     0.053 A 
ATOM     26  C   UNL     1      12.100  15.042 -12.730  1.00  0.00     0.151 A 
ATOM     27  F   UNL     1      13.049  16.020 -10.806  1.00  0.00    -0.203 F 
BRANCH  23  28
ATOM     28  C   UNL     1      13.121  15.095 -16.382  1.00  0.00     0.033 C 
ATOM     29  C   UNL     1      12.337  13.838 -16.725  1.00  0.00     0.009 C 
ENDBRANCH  23  28
BRANCH  26  30
ATOM     30  O   UNL     1      11.085  14.500 -11.994  1.00  0.00    -0.505 OA
ATOM     31  H   UNL     1      11.234  14.763 -11.066  1.00  0.00     0.293 HD
ENDBRANCH  26  30
ENDBRANCH   3  21
TORSDOF 6
ENDMDL
MODEL 9
REMARK minimizedAffinity -9.53998089
REMARK CNNscore 0.258710474
REMARK CNNaffinity 6.63374853
REMARK SMILES C=CC(=O)N1CCC(Oc2cc(-c3cc(F)c(O)cc3CC)cn3cncc23)CC1
REMARK SMILES IDX 10 1 11 2 12 3 23 4 24 5 25 6 26 7 27 8 28 9 9 10 8 11 3 12
REMARK SMILES IDX 4 13 5 14 6 15 30 16 7 17 29 18 2 19 1 20 13 21 14 22 20 23
REMARK SMILES IDX 15 24 19 25 17 26 16 27 21 28 22 29 18 30
REMARK H PARENT 18 31
ROOT
ATOM      1  C   UNL     1      11.030  14.222 -18.124  1.00  0.00     0.146 A 
ATOM      2  C   UNL     1      11.757  14.620 -17.055  1.00  0.00     0.059 A 
ATOM      3  C   UNL     1      11.241  14.543 -15.684  1.00  0.00     0.002 A 
ATOM      4  C   UNL     1      10.004  14.041 -15.498  1.00  0.00     0.101 A 
ATOM      5  N   UNL     1       9.263  13.631 -16.600  1.00  0.00    -0.302 N 
ATOM      6  C   UNL     1       7.998  13.100 -16.662  1.00  0.00     0.204 A 
ATOM      7  N   UNL     1       7.629  12.835 -17.896  1.00  0.00    -0.244 NA
ATOM      8  C   UNL     1       8.698  13.205 -18.676  1.00  0.00     0.143 A 
ATOM      9  C   UNL     1       9.724  13.702 -17.903  1.00  0.00     0.107 A 
ENDROOT
BRANCH   1  10
ATOM     10  O   UNL     1      11.388  14.244 -19.446  1.00  0.00    -0.488 OA
BRANCH  10  11
ATOM     11  C   UNL     1      12.076  13.123 -20.018  1.00  0.00     0.177 C 
ATOM     12  C   UNL     1      12.520  11.519 -24.021  1.00  0.00     0.245 C 
ATOM     13  O   UNL     1      11.552  11.268 -24.736  1.00  0.00    -0.270 OA
ATOM     14  N   UNL     1      12.420  12.056 -22.748  1.00  0.00    -0.339 N 
ATOM     15  C   UNL     1      11.083  12.257 -22.194  1.00  0.00     0.123 C 
ATOM     16  C   UNL     1      13.543  12.639 -22.010  1.00  0.00     0.123 C 
ATOM     17  C   UNL     1      11.086  12.149 -20.673  1.00  0.00     0.067 C 
ATOM     18  C   UNL     1      13.084  13.697 -21.020  1.00  0.00     0.067 C 
BRANCH  12  19
ATOM     19  C   UNL     1      13.876  11.259 -24.562  1.00  0.00     0.063 C 
ATOM     20  C   UNL     1      14.100  10.346 -25.516  1.00  0.00     0.014 C 
ENDBRANCH  12  19
ENDBRANCH  10  11
ENDBRANCH   1  10
BRANCH   3  21
ATOM     21  C   UNL     1      12.019  14.973 -14.508  1.00  0.00    -0.010 A 
ATOM     22  C   UNL     1      13.204  15.690 -14.739  1.00  0.00     0.052 A 
ATOM     23  C   UNL     1      11.607  14.703 -13.182  1.00  0.00    -0.036 A 
ATOM     24  C   UNL     1      13.967  16.128 -13.665  1.00  0.00     0.165 A 
ATOM     25  C   UNL     1      12.399  15.165 -12.113  1.00  0.00     0.053 A 
ATOM     26  C   UNL     1      13.569  15.869 -12.361  1.00  0.00     0.151 A 
ATOM     27  F   UNL     1      15.099  16.813 -13.887  1.00  0.00    -0.203 F 
BRANCH  23  28
ATOM     28  C   UNL     1      10.329  13.960 -12.855  1.00  0.00     0.033 C 
ATOM     29  C   UNL     1      10.216  13.644 -11.371  1.00  0.00     0.009 C 
ENDBRANCH  23  28
BRANCH  26  30
ATOM     30  O   UNL     1      14.312  16.299 -11.299  1.00  0.00    -0.505 OA
ATOM     31  H   UNL     1      15.087  16.767 -11.664  1.00  0.00     0.293 HD
ENDBRANCH  26  30
ENDBRANCH   3  21
TORSDOF 6
ENDMDL
