MODEL 1
REMARK minimizedAffinity -8.70935631
REMARK CNNscore 0.939679682
REMARK CNNaffinity 7.96810389
REMARK SMILES C=CC(=O)N1CCC[C@H](Oc2cc(-c3cc(F)c(O)cc3CC)cn3cncc23)C1
REMARK SMILES IDX 11 1 12 2 13 3 24 4 25 5 26 6 27 7 28 8 29 9 10 10 9 11 5 12
REMARK SMILES IDX 6 13 30 14 7 15 8 16 3 17 4 18 2 19 1 20 14 21 15 22 21 23
REMARK SMILES IDX 16 24 20 25 18 26 17 27 22 28 23 29 19 30
REMARK H PARENT 19 31
ROOT
ATOM      1  C   UNL     1      13.154  15.923 -14.400  1.00  0.00     0.146 A 
ATOM      2  C   UNL     1      12.333  15.322 -15.283  1.00  0.00     0.059 A 
ATOM      3  C   UNL     1      11.309  14.363 -14.859  1.00  0.00     0.002 A 
ATOM      4  C   UNL     1      11.182  14.115 -13.540  1.00  0.00     0.101 A 
ATOM      5  N   UNL     1      12.011  14.774 -12.636  1.00  0.00    -0.302 N 
ATOM      6  C   UNL     1      12.054  14.700 -11.265  1.00  0.00     0.204 A 
ATOM      7  N   UNL     1      12.970  15.493 -10.753  1.00  0.00    -0.244 NA
ATOM      8  C   UNL     1      13.551  16.113 -11.831  1.00  0.00     0.143 A 
ATOM      9  C   UNL     1      12.991  15.680 -13.011  1.00  0.00     0.107 A 
ENDROOT
BRANCH   1  10
ATOM     10  O   UNL     1      14.085  16.861 -14.776  1.00  0.00    -0.486 OA
BRANCH  10  11
ATOM     11  C   UNL     1      15.132  16.308 -15.593  1.00  0.00     0.193 C 
ATOM     12  N   UNL     1      16.914  17.082 -17.188  1.00  0.00    -0.335 N 
ATOM     13  C   UNL     1      16.390  16.222 -18.248  1.00  0.00     0.120 C 
ATOM     14  C   UNL     1      15.958  17.480 -16.148  1.00  0.00     0.164 C 
ATOM     15  C   UNL     1      15.599  15.038 -17.702  1.00  0.00     0.025 C 
ATOM     16  C   UNL     1      14.517  15.497 -16.735  1.00  0.00     0.049 C 
BRANCH  12  17
ATOM     17  C   UNL     1      18.119  17.730 -17.448  1.00  0.00     0.246 C 
ATOM     18  O   UNL     1      18.796  17.504 -18.449  1.00  0.00    -0.270 OA
BRANCH  17  19
ATOM     19  C   UNL     1      18.586  18.741 -16.461  1.00  0.00     0.063 C 
ATOM     20  C   UNL     1      18.108  18.728 -15.210  1.00  0.00     0.014 C 
ENDBRANCH  17  19
ENDBRANCH  12  17
ENDBRANCH  10  11
ENDBRANCH   1  10
BRANCH   3  21
ATOM     21  C   UNL     1      10.426  13.663 -15.809  1.00  0.00    -0.010 A 
ATOM     22  C   UNL     1       9.500  14.436 -16.527  1.00  0.00     0.052 A 
ATOM     23  C   UNL     1      10.469  12.263 -15.999  1.00  0.00    -0.036 A 
ATOM     24  C   UNL     1       8.638  13.825 -17.427  1.00  0.00     0.165 A 
ATOM     25  C   UNL     1       9.587  11.670 -16.923  1.00  0.00     0.053 A 
ATOM     26  C   UNL     1       8.679  12.452 -17.627  1.00  0.00     0.151 A 
ATOM     27  F   UNL     1       7.754  14.565 -18.113  1.00  0.00    -0.203 F 
BRANCH  23  28
ATOM     28  C   UNL     1      11.444  11.364 -15.268  1.00  0.00     0.033 C 
ATOM     29  C   UNL     1      12.839  11.426 -15.873  1.00  0.00     0.009 C 
ENDBRANCH  23  28
BRANCH  26  30
ATOM     30  O   UNL     1       7.837  11.842 -18.511  1.00  0.00    -0.505 OA
ATOM     31  H   UNL     1       7.276  12.540 -18.898  1.00  0.00     0.293 HD
ENDBRANCH  26  30
ENDBRANCH   3  21
TORSDOF 7
ENDMDL
MODEL 2
REMARK minimizedAffinity -8.85115528
REMARK CNNscore 0.886695266
REMARK CNNaffinity 7.83380461
REMARK SMILES C=CC(=O)N1CCC[C@H](Oc2cc(-c3cc(F)c(O)cc3CC)cn3cncc23)C1
REMARK SMILES IDX 11 1 12 2 13 3 24 4 25 5 26 6 27 7 28 8 29 9 10 10 9 11 5 12
REMARK SMILES IDX 6 13 30 14 7 15 8 16 3 17 4 18 2 19 1 20 14 21 15 22 21 23
REMARK SMILES IDX 16 24 20 25 18 26 17 27 22 28 23 29 19 30
REMARK H PARENT 19 31
ROOT
ATOM      1  C   UNL     1      12.155  15.392 -14.485  1.00  0.00     0.146 A 
ATOM      2  C   UNL     1      13.033  15.698 -15.459  1.00  0.00     0.059 A 
ATOM      3  C   UNL     1      14.379  16.195 -15.161  1.00  0.00     0.002 A 
ATOM      4  C   UNL     1      14.739  16.310 -13.866  1.00  0.00     0.101 A 
ATOM      5  N   UNL     1      13.834  15.952 -12.870  1.00  0.00    -0.302 N 
ATOM      6  C   UNL     1      13.979  15.965 -11.504  1.00  0.00     0.204 A 
ATOM      7  N   UNL     1      12.900  15.535 -10.886  1.00  0.00    -0.244 NA
ATOM      8  C   UNL     1      12.012  15.225 -11.887  1.00  0.00     0.143 A 
ATOM      9  C   UNL     1      12.554  15.486 -13.125  1.00  0.00     0.107 A 
ENDROOT
BRANCH   1  10
ATOM     10  O   UNL     1      10.908  14.878 -14.747  1.00  0.00    -0.486 OA
BRANCH  10  11
ATOM     11  C   UNL     1      10.939  13.805 -15.704  1.00  0.00     0.193 C 
ATOM     12  N   UNL     1       9.364  12.541 -17.202  1.00  0.00    -0.335 N 
ATOM     13  C   UNL     1       9.745  11.269 -16.588  1.00  0.00     0.120 C 
ATOM     14  C   UNL     1       9.557  13.738 -16.375  1.00  0.00     0.164 C 
ATOM     15  C   UNL     1      11.129  11.318 -15.951  1.00  0.00     0.025 C 
ATOM     16  C   UNL     1      11.251  12.489 -14.986  1.00  0.00     0.049 C 
BRANCH  12  17
ATOM     17  C   UNL     1       8.537  12.474 -18.319  1.00  0.00     0.246 C 
ATOM     18  O   UNL     1       7.454  13.052 -18.384  1.00  0.00    -0.270 OA
BRANCH  17  19
ATOM     19  C   UNL     1       9.007  11.666 -19.478  1.00  0.00     0.063 C 
ATOM     20  C   UNL     1      10.177  11.952 -20.064  1.00  0.00     0.014 C 
ENDBRANCH  17  19
ENDBRANCH  12  17
ENDBRANCH  10  11
ENDBRANCH   1  10
BRANCH   3  21
ATOM     21  C   UNL     1      15.343  16.574 -16.209  1.00  0.00    -0.010 A 
ATOM     22  C   UNL     1      16.079  17.755 -16.020  1.00  0.00     0.052 A 
ATOM     23  C   UNL     1      15.531  15.811 -17.384  1.00  0.00    -0.036 A 
ATOM     24  C   UNL     1      16.993  18.163 -16.981  1.00  0.00     0.165 A 
ATOM     25  C   UNL     1      16.469  16.245 -18.340  1.00  0.00     0.053 A 
ATOM     26  C   UNL     1      17.190  17.415 -18.134  1.00  0.00     0.151 A 
ATOM     27  F   UNL     1      17.695  19.291 -16.799  1.00  0.00    -0.203 F 
BRANCH  23  28
ATOM     28  C   UNL     1      14.781  14.523 -17.656  1.00  0.00     0.033 C 
ATOM     29  C   UNL     1      13.826  14.657 -18.833  1.00  0.00     0.009 C 
ENDBRANCH  23  28
BRANCH  26  30
ATOM     30  O   UNL     1      18.088  17.807 -19.084  1.00  0.00    -0.505 OA
ATOM     31  H   UNL     1      18.485  18.642 -18.773  1.00  0.00     0.293 HD
ENDBRANCH  26  30
ENDBRANCH   3  21
TORSDOF 7
ENDMDL
MODEL 3
REMARK minimizedAffinity -8.62258339
REMARK CNNscore 0.884498835
REMARK CNNaffinity 7.88781977
REMARK SMILES C=CC(=O)N1CCC[C@H](Oc2cc(-c3cc(F)c(O)cc3CC)cn3cncc23)C1
REMARK SMILES IDX 11 1 12 2 13 3 24 4 25 5 26 6 27 7 28 8 29 9 10 10 9 11 5 12
REMARK SMILES IDX 6 13 30 14 7 15 8 16 3 17 4 18 2 19 1 20 14 21 15 22 21 23
REMARK SMILES IDX 16 24 20 25 18 26 17 27 22 28 23 29 19 30
REMARK H PARENT 19 31
ROOT
ATOM      1  C   UNL     1      13.650  15.772 -14.106  1.00  0.00     0.146 A 
ATOM      2  C   UNL     1      12.909  15.303 -15.128  1.00  0.00     0.059 A 
ATOM      3  C   UNL     1      11.686  14.527 -14.906  1.00  0.00     0.002 A 
ATOM      4  C   UNL     1      11.294  14.315 -13.633  1.00  0.00     0.101 A 
ATOM      5  N   UNL     1      12.048  14.840 -12.587  1.00  0.00    -0.302 N 
ATOM      6  C   UNL     1      11.840  14.773 -11.231  1.00  0.00     0.204 A 
ATOM      7  N   UNL     1      12.769  15.412 -10.554  1.00  0.00    -0.244 NA
ATOM      8  C   UNL     1      13.620  15.920 -11.503  1.00  0.00     0.143 A 
ATOM      9  C   UNL     1      13.211  15.571 -12.770  1.00  0.00     0.107 A 
ENDROOT
BRANCH   1  10
ATOM     10  O   UNL     1      14.770  16.544 -14.297  1.00  0.00    -0.486 OA
BRANCH  10  11
ATOM     11  C   UNL     1      14.966  16.907 -15.675  1.00  0.00     0.193 C 
ATOM     12  N   UNL     1      15.114  15.812 -17.933  1.00  0.00    -0.335 N 
ATOM     13  C   UNL     1      16.437  16.390 -18.166  1.00  0.00     0.120 C 
ATOM     14  C   UNL     1      14.719  15.653 -16.529  1.00  0.00     0.164 C 
ATOM     15  C   UNL     1      16.676  17.654 -17.349  1.00  0.00     0.025 C 
ATOM     16  C   UNL     1      16.396  17.417 -15.871  1.00  0.00     0.049 C 
BRANCH  12  17
ATOM     17  C   UNL     1      14.526  15.144 -19.004  1.00  0.00     0.246 C 
ATOM     18  O   UNL     1      14.519  15.593 -20.148  1.00  0.00    -0.270 OA
BRANCH  17  19
ATOM     19  C   UNL     1      13.891  13.826 -18.729  1.00  0.00     0.063 C 
ATOM     20  C   UNL     1      13.169  13.218 -19.680  1.00  0.00     0.014 C 
ENDBRANCH  17  19
ENDBRANCH  12  17
ENDBRANCH  10  11
ENDBRANCH   1  10
BRANCH   3  21
ATOM     21  C   UNL     1      10.881  13.969 -16.007  1.00  0.00    -0.010 A 
ATOM     22  C   UNL     1       9.834  14.758 -16.511  1.00  0.00     0.052 A 
ATOM     23  C   UNL     1      11.113  12.683 -16.545  1.00  0.00    -0.036 A 
ATOM     24  C   UNL     1       9.038  14.276 -17.542  1.00  0.00     0.165 A 
ATOM     25  C   UNL     1      10.293  12.222 -17.595  1.00  0.00     0.053 A 
ATOM     26  C   UNL     1       9.265  13.018 -18.082  1.00  0.00     0.151 A 
ATOM     27  F   UNL     1       8.040  15.031 -18.022  1.00  0.00    -0.203 F 
BRANCH  23  28
ATOM     28  C   UNL     1      12.226  11.778 -16.060  1.00  0.00     0.033 C 
ATOM     29  C   UNL     1      11.694  10.606 -15.249  1.00  0.00     0.009 C 
ENDBRANCH  23  28
BRANCH  26  30
ATOM     30  O   UNL     1       8.489  12.536 -19.096  1.00  0.00    -0.505 OA
ATOM     31  H   UNL     1       7.825  13.222 -19.297  1.00  0.00     0.293 HD
ENDBRANCH  26  30
ENDBRANCH   3  21
TORSDOF 7
ENDMDL
MODEL 4
REMARK minimizedAffinity -7.82624578
REMARK CNNscore 0.856981933
REMARK CNNaffinity 7.95090437
REMARK SMILES C=CC(=O)N1CCC[C@H](Oc2cc(-c3cc(F)c(O)cc3CC)cn3cncc23)C1
REMARK SMILES IDX 11 1 12 2 13 3 24 4 25 5 26 6 27 7 28 8 29 9 10 10 9 11 5 12
REMARK SMILES IDX 6 13 30 14 7 15 8 16 3 17 4 18 2 19 1 20 14 21 15 22 21 23
REMARK SMILES IDX 16 24 20 25 18 26 17 27 22 28 23 29 19 30
REMARK H PARENT 19 31
ROOT
ATOM      1  C   UNL     1      14.097  15.360 -14.964  1.00  0.00     0.146 A 
ATOM      2  C   UNL     1      13.201  14.869 -15.842  1.00  0.00     0.059 A 
ATOM      3  C   UNL     1      11.825  14.554 -15.449  1.00  0.00     0.002 A 
ATOM      4  C   UNL     1      11.458  14.801 -14.175  1.00  0.00     0.101 A 
ATOM      5  N   UNL     1      12.384  15.346 -13.290  1.00  0.00    -0.302 N 
ATOM      6  C   UNL     1      12.238  15.697 -11.970  1.00  0.00     0.204 A 
ATOM      7  N   UNL     1      13.342  16.203 -11.465  1.00  0.00    -0.244 NA
ATOM      8  C   UNL     1      14.249  16.185 -12.496  1.00  0.00     0.143 A 
ATOM      9  C   UNL     1      13.692  15.647 -13.634  1.00  0.00     0.107 A 
ENDROOT
BRANCH   1  10
ATOM     10  O   UNL     1      15.375  15.707 -15.329  1.00  0.00    -0.486 OA
BRANCH  10  11
ATOM     11  C   UNL     1      15.411  16.812 -16.249  1.00  0.00     0.193 C 
ATOM     12  N   UNL     1      16.286  17.354 -18.543  1.00  0.00    -0.335 N 
ATOM     13  C   UNL     1      17.059  18.480 -18.021  1.00  0.00     0.120 C 
ATOM     14  C   UNL     1      15.969  16.290 -17.583  1.00  0.00     0.164 C 
ATOM     15  C   UNL     1      16.490  19.025 -16.716  1.00  0.00     0.025 C 
ATOM     16  C   UNL     1      16.308  17.917 -15.688  1.00  0.00     0.049 C 
BRANCH  12  17
ATOM     17  C   UNL     1      16.246  17.212 -19.927  1.00  0.00     0.246 C 
ATOM     18  O   UNL     1      15.355  16.596 -20.509  1.00  0.00    -0.270 OA
BRANCH  17  19
ATOM     19  C   UNL     1      17.335  17.847 -20.718  1.00  0.00     0.063 C 
ATOM     20  C   UNL     1      17.047  18.809 -21.604  1.00  0.00     0.014 C 
ENDBRANCH  17  19
ENDBRANCH  12  17
ENDBRANCH  10  11
ENDBRANCH   1  10
BRANCH   3  21
ATOM     21  C   UNL     1      10.839  13.978 -16.381  1.00  0.00    -0.010 A 
ATOM     22  C   UNL     1       9.784  14.804 -16.804  1.00  0.00     0.052 A 
ATOM     23  C   UNL     1      10.909  12.642 -16.836  1.00  0.00    -0.036 A 
ATOM     24  C   UNL     1       8.822  14.308 -17.673  1.00  0.00     0.165 A 
ATOM     25  C   UNL     1       9.923  12.167 -17.722  1.00  0.00     0.053 A 
ATOM     26  C   UNL     1       8.889  13.000 -18.132  1.00  0.00     0.151 A 
ATOM     27  F   UNL     1       7.816  15.098 -18.077  1.00  0.00    -0.203 F 
BRANCH  23  28
ATOM     28  C   UNL     1      12.019  11.694 -16.431  1.00  0.00     0.033 C 
ATOM     29  C   UNL     1      11.575  10.730 -15.341  1.00  0.00     0.009 C 
ENDBRANCH  23  28
BRANCH  26  30
ATOM     30  O   UNL     1       7.949  12.504 -18.988  1.00  0.00    -0.505 OA
ATOM     31  H   UNL     1       7.309  13.221 -19.154  1.00  0.00     0.293 HD
ENDBRANCH  26  30
ENDBRANCH   3  21
TORSDOF 7
ENDMDL
MODEL 5
REMARK minimizedAffinity -7.71741724
REMARK CNNscore 0.372704387
REMARK CNNaffinity 7.07050943
REMARK SMILES C=CC(=O)N1CCC[C@H](Oc2cc(-c3cc(F)c(O)cc3CC)cn3cncc23)C1
REMARK SMILES IDX 11 1 12 2 13 3 24 4 25 5 26 6 27 7 28 8 29 9 10 10 9 11 5 12
REMARK SMILES IDX 6 13 30 14 7 15 8 16 3 17 4 18 2 19 1 20 14 21 15 22 21 23
REMARK SMILES IDX 16 24 20 25 18 26 17 27 22 28 23 29 19 30
REMARK H PARENT 19 31
ROOT
ATOM      1  C   UNL     1      14.828  16.350 -15.202  1.00  0.00     0.146 A 
ATOM      2  C   UNL     1      14.284  15.925 -16.359  1.00  0.00     0.059 A 
ATOM      3  C   UNL     1      13.048  15.139 -16.390  1.00  0.00     0.002 A 
ATOM      4  C   UNL     1      12.437  14.874 -15.218  1.00  0.00     0.101 A 
ATOM      5  N   UNL     1      12.989  15.354 -14.033  1.00  0.00    -0.302 N 
ATOM      6  C   UNL     1      12.543  15.230 -12.740  1.00  0.00     0.204 A 
ATOM      7  N   UNL     1      13.332  15.840 -11.882  1.00  0.00    -0.244 NA
ATOM      8  C   UNL     1      14.334  16.389 -12.642  1.00  0.00     0.143 A 
ATOM      9  C   UNL     1      14.160  16.093 -13.976  1.00  0.00     0.107 A 
ENDROOT
BRANCH   1  10
ATOM     10  O   UNL     1      15.959  17.129 -15.159  1.00  0.00    -0.486 OA
BRANCH  10  11
ATOM     11  C   UNL     1      16.383  17.567 -16.461  1.00  0.00     0.193 C 
ATOM     12  N   UNL     1      18.510  17.936 -17.750  1.00  0.00    -0.335 N 
ATOM     13  C   UNL     1      18.157  19.333 -18.002  1.00  0.00     0.120 C 
ATOM     14  C   UNL     1      17.897  17.320 -16.568  1.00  0.00     0.164 C 
ATOM     15  C   UNL     1      16.654  19.578 -17.933  1.00  0.00     0.025 C 
ATOM     16  C   UNL     1      16.069  19.056 -16.628  1.00  0.00     0.049 C 
BRANCH  12  17
ATOM     17  C   UNL     1      19.638  17.449 -18.403  1.00  0.00     0.246 C 
ATOM     18  O   UNL     1      19.733  17.403 -19.629  1.00  0.00    -0.270 OA
BRANCH  17  19
ATOM     19  C   UNL     1      20.772  16.975 -17.563  1.00  0.00     0.063 C 
ATOM     20  C   UNL     1      21.496  15.917 -17.949  1.00  0.00     0.014 C 
ENDBRANCH  17  19
ENDBRANCH  12  17
ENDBRANCH  10  11
ENDBRANCH   1  10
BRANCH   3  21
ATOM     21  C   UNL     1      12.456  14.629 -17.639  1.00  0.00    -0.010 A 
ATOM     22  C   UNL     1      13.314  14.433 -18.734  1.00  0.00     0.052 A 
ATOM     23  C   UNL     1      11.075  14.355 -17.772  1.00  0.00    -0.036 A 
ATOM     24  C   UNL     1      12.805  13.963 -19.937  1.00  0.00     0.165 A 
ATOM     25  C   UNL     1      10.588  13.873 -19.002  1.00  0.00     0.053 A 
ATOM     26  C   UNL     1      11.452  13.683 -20.073  1.00  0.00     0.151 A 
ATOM     27  F   UNL     1      13.625  13.776 -20.981  1.00  0.00    -0.203 F 
BRANCH  23  28
ATOM     28  C   UNL     1      10.090  14.532 -16.635  1.00  0.00     0.033 C 
ATOM     29  C   UNL     1       9.211  13.305 -16.446  1.00  0.00     0.009 C 
ENDBRANCH  23  28
BRANCH  26  30
ATOM     30  O   UNL     1      10.943  13.219 -21.251  1.00  0.00    -0.505 OA
ATOM     31  H   UNL     1      11.688  13.158 -21.879  1.00  0.00     0.293 HD
ENDBRANCH  26  30
ENDBRANCH   3  21
TORSDOF 7
ENDMDL
MODEL 6
REMARK minimizedAffinity -6.75043774
REMARK CNNscore 0.3620781
REMARK CNNaffinity 7.14091539
REMARK SMILES C=CC(=O)N1CCC[C@H](Oc2cc(-c3cc(F)c(O)cc3CC)cn3cncc23)C1
REMARK SMILES IDX 11 1 12 2 13 3 24 4 25 5 26 6 27 7 28 8 29 9 10 10 9 11 5 12
REMARK SMILES IDX 6 13 30 14 7 15 8 16 3 17 4 18 2 19 1 20 14 21 15 22 21 23
REMARK SMILES IDX 16 24 20 25 18 26 17 27 22 28 23 29 19 30
REMARK H PARENT 19 31
ROOT
ATOM      1  C   UNL     1      14.829  16.244 -15.214  1.00  0.00     0.146 A 
ATOM      2  C   UNL     1      14.320  15.750 -16.360  1.00  0.00     0.059 A 
ATOM      3  C   UNL     1      13.059  15.006 -16.389  1.00  0.00     0.002 A 
ATOM      4  C   UNL     1      12.388  14.850 -15.229  1.00  0.00     0.101 A 
ATOM      5  N   UNL     1      12.906  15.401 -14.060  1.00  0.00    -0.302 N 
ATOM      6  C   UNL     1      12.401  15.390 -12.783  1.00  0.00     0.204 A 
ATOM      7  N   UNL     1      13.174  16.037 -11.937  1.00  0.00    -0.244 NA
ATOM      8  C   UNL     1      14.227  16.493 -12.690  1.00  0.00     0.143 A 
ATOM      9  C   UNL     1      14.100  16.103 -14.004  1.00  0.00     0.107 A 
ENDROOT
BRANCH   1  10
ATOM     10  O   UNL     1      15.984  16.987 -15.178  1.00  0.00    -0.486 OA
BRANCH  10  11
ATOM     11  C   UNL     1      16.545  17.208 -16.483  1.00  0.00     0.193 C 
ATOM     12  N   UNL     1      16.318  18.809 -18.409  1.00  0.00    -0.335 N 
ATOM     13  C   UNL     1      16.016  17.714 -19.330  1.00  0.00     0.120 C 
ATOM     14  C   UNL     1      16.021  18.561 -16.993  1.00  0.00     0.164 C 
ATOM     15  C   UNL     1      16.563  16.376 -18.847  1.00  0.00     0.025 C 
ATOM     16  C   UNL     1      16.117  16.078 -17.423  1.00  0.00     0.049 C 
BRANCH  12  17
ATOM     17  C   UNL     1      16.497  20.069 -18.973  1.00  0.00     0.246 C 
ATOM     18  O   UNL     1      17.200  20.937 -18.458  1.00  0.00    -0.270 OA
BRANCH  17  19
ATOM     19  C   UNL     1      15.805  20.354 -20.259  1.00  0.00     0.063 C 
ATOM     20  C   UNL     1      14.708  21.123 -20.275  1.00  0.00     0.014 C 
ENDBRANCH  17  19
ENDBRANCH  12  17
ENDBRANCH  10  11
ENDBRANCH   1  10
BRANCH   3  21
ATOM     21  C   UNL     1      12.503  14.421 -17.622  1.00  0.00    -0.010 A 
ATOM     22  C   UNL     1      12.894  14.990 -18.845  1.00  0.00     0.052 A 
ATOM     23  C   UNL     1      11.590  13.342 -17.610  1.00  0.00    -0.036 A 
ATOM     24  C   UNL     1      12.392  14.484 -20.037  1.00  0.00     0.165 A 
ATOM     25  C   UNL     1      11.101  12.845 -18.834  1.00  0.00     0.053 A 
ATOM     26  C   UNL     1      11.502  13.418 -20.034  1.00  0.00     0.151 A 
ATOM     27  F   UNL     1      12.767  15.027 -21.204  1.00  0.00    -0.203 F 
BRANCH  23  28
ATOM     28  C   UNL     1      11.128  12.672 -16.333  1.00  0.00     0.033 C 
ATOM     29  C   UNL     1       9.611  12.574 -16.258  1.00  0.00     0.009 C 
ENDBRANCH  23  28
BRANCH  26  30
ATOM     30  O   UNL     1      11.004  12.912 -21.199  1.00  0.00    -0.505 OA
ATOM     31  H   UNL     1      11.387  13.439 -21.925  1.00  0.00     0.293 HD
ENDBRANCH  26  30
ENDBRANCH   3  21
TORSDOF 7
ENDMDL
MODEL 7
REMARK minimizedAffinity -9.48653698
REMARK CNNscore 0.274246067
REMARK CNNaffinity 6.60136747
REMARK SMILES C=CC(=O)N1CCC[C@H](Oc2cc(-c3cc(F)c(O)cc3CC)cn3cncc23)C1
REMARK SMILES IDX 11 1 12 2 13 3 24 4 25 5 26 6 27 7 28 8 29 9 10 10 9 11 5 12
REMARK SMILES IDX 6 13 30 14 7 15 8 16 3 17 4 18 2 19 1 20 14 21 15 22 21 23
REMARK SMILES IDX 16 24 20 25 18 26 17 27 22 28 23 29 19 30
REMARK H PARENT 19 31
ROOT
ATOM      1  C   UNL     1      14.251  14.307 -17.071  1.00  0.00     0.146 A 
ATOM      2  C   UNL     1      13.432  14.146 -16.014  1.00  0.00     0.059 A 
ATOM      3  C   UNL     1      13.434  15.077 -14.884  1.00  0.00     0.002 A 
ATOM      4  C   UNL     1      14.265  16.138 -14.939  1.00  0.00     0.101 A 
ATOM      5  N   UNL     1      15.078  16.313 -16.056  1.00  0.00    -0.302 N 
ATOM      6  C   UNL     1      15.977  17.311 -16.342  1.00  0.00     0.204 A 
ATOM      7  N   UNL     1      16.549  17.143 -17.515  1.00  0.00    -0.244 NA
ATOM      8  C   UNL     1      16.002  15.990 -18.019  1.00  0.00     0.143 A 
ATOM      9  C   UNL     1      15.100  15.443 -17.135  1.00  0.00     0.107 A 
ENDROOT
BRANCH   1  10
ATOM     10  O   UNL     1      14.226  13.470 -18.161  1.00  0.00    -0.486 OA
BRANCH  10  11
ATOM     11  C   UNL     1      13.069  13.672 -18.990  1.00  0.00     0.193 C 
ATOM     12  N   UNL     1      10.633  13.053 -19.047  1.00  0.00    -0.335 N 
ATOM     13  C   UNL     1      10.785  12.432 -20.362  1.00  0.00     0.120 C 
ATOM     14  C   UNL     1      11.848  13.131 -18.228  1.00  0.00     0.164 C 
ATOM     15  C   UNL     1      11.973  12.988 -21.138  1.00  0.00     0.025 C 
ATOM     16  C   UNL     1      13.250  12.923 -20.313  1.00  0.00     0.049 C 
BRANCH  12  17
ATOM     17  C   UNL     1       9.335  13.165 -18.555  1.00  0.00     0.246 C 
ATOM     18  O   UNL     1       8.771  14.247 -18.402  1.00  0.00    -0.270 OA
BRANCH  17  19
ATOM     19  C   UNL     1       8.616  11.908 -18.212  1.00  0.00     0.063 C 
ATOM     20  C   UNL     1       7.604  11.484 -18.980  1.00  0.00     0.014 C 
ENDBRANCH  17  19
ENDBRANCH  12  17
ENDBRANCH  10  11
ENDBRANCH   1  10
BRANCH   3  21
ATOM     21  C   UNL     1      12.576  14.900 -13.699  1.00  0.00    -0.010 A 
ATOM     22  C   UNL     1      13.098  15.286 -12.454  1.00  0.00     0.052 A 
ATOM     23  C   UNL     1      11.277  14.346 -13.774  1.00  0.00    -0.036 A 
ATOM     24  C   UNL     1      12.335  15.132 -11.304  1.00  0.00     0.165 A 
ATOM     25  C   UNL     1      10.523  14.207 -12.592  1.00  0.00     0.053 A 
ATOM     26  C   UNL     1      11.056  14.597 -11.370  1.00  0.00     0.151 A 
ATOM     27  F   UNL     1      12.835  15.502 -10.116  1.00  0.00    -0.203 F 
BRANCH  23  28
ATOM     28  C   UNL     1      10.643  13.915 -15.079  1.00  0.00     0.033 C 
ATOM     29  C   UNL     1       9.332  13.174 -14.858  1.00  0.00     0.009 C 
ENDBRANCH  23  28
BRANCH  26  30
ATOM     30  O   UNL     1      10.297  14.443 -10.246  1.00  0.00    -0.505 OA
ATOM     31  H   UNL     1      10.833  14.760  -9.495  1.00  0.00     0.293 HD
ENDBRANCH  26  30
ENDBRANCH   3  21
TORSDOF 7
ENDMDL
MODEL 8
REMARK minimizedAffinity -9.2996645
REMARK CNNscore 0.249435499
REMARK CNNaffinity 6.77466249
REMARK SMILES C=CC(=O)N1CCC[C@H](Oc2cc(-c3cc(F)c(O)cc3CC)cn3cncc23)C1
REMARK SMILES IDX 11 1 12 2 13 3 24 4 25 5 26 6 27 7 28 8 29 9 10 10 9 11 5 12
REMARK SMILES IDX 6 13 30 14 7 15 8 16 3 17 4 18 2 19 1 20 14 21 15 22 21 23
REMARK SMILES IDX 16 24 20 25 18 26 17 27 22 28 23 29 19 30
REMARK H PARENT 19 31
ROOT
ATOM      1  C   UNL     1      12.046  13.301 -17.647  1.00  0.00     0.146 A 
ATOM      2  C   UNL     1      12.435  13.714 -16.426  1.00  0.00     0.059 A 
ATOM      3  C   UNL     1      11.467  14.067 -15.383  1.00  0.00     0.002 A 
ATOM      4  C   UNL     1      10.155  13.935 -15.667  1.00  0.00     0.101 A 
ATOM      5  N   UNL     1       9.769  13.468 -16.920  1.00  0.00    -0.302 N 
ATOM      6  C   UNL     1       8.513  13.236 -17.425  1.00  0.00     0.204 A 
ATOM      7  N   UNL     1       8.549  12.774 -18.656  1.00  0.00    -0.244 NA
ATOM      8  C   UNL     1       9.883  12.698 -18.972  1.00  0.00     0.143 A 
ATOM      9  C   UNL     1      10.664  13.134 -17.925  1.00  0.00     0.107 A 
ENDROOT
BRANCH   1  10
ATOM     10  O   UNL     1      12.940  12.920 -18.618  1.00  0.00    -0.486 OA
BRANCH  10  11
ATOM     11  C   UNL     1      12.633  13.478 -19.907  1.00  0.00     0.193 C 
ATOM     12  N   UNL     1      13.066  13.011 -22.339  1.00  0.00    -0.335 N 
ATOM     13  C   UNL     1      13.664  14.333 -22.523  1.00  0.00     0.120 C 
ATOM     14  C   UNL     1      13.098  12.474 -20.974  1.00  0.00     0.164 C 
ATOM     15  C   UNL     1      13.179  15.344 -21.489  1.00  0.00     0.025 C 
ATOM     16  C   UNL     1      13.360  14.814 -20.073  1.00  0.00     0.049 C 
BRANCH  12  17
ATOM     17  C   UNL     1      12.869  12.250 -23.488  1.00  0.00     0.246 C 
ATOM     18  O   UNL     1      11.752  11.974 -23.922  1.00  0.00    -0.270 OA
BRANCH  17  19
ATOM     19  C   UNL     1      14.076  11.766 -24.211  1.00  0.00     0.063 C 
ATOM     20  C   UNL     1      14.024  10.629 -24.918  1.00  0.00     0.014 C 
ENDBRANCH  17  19
ENDBRANCH  12  17
ENDBRANCH  10  11
ENDBRANCH   1  10
BRANCH   3  21
ATOM     21  C   UNL     1      11.867  14.559 -14.053  1.00  0.00    -0.010 A 
ATOM     22  C   UNL     1      11.087  14.169 -12.953  1.00  0.00     0.052 A 
ATOM     23  C   UNL     1      12.978  15.412 -13.859  1.00  0.00    -0.036 A 
ATOM     24  C   UNL     1      11.414  14.613 -11.679  1.00  0.00     0.165 A 
ATOM     25  C   UNL     1      13.290  15.842 -12.554  1.00  0.00     0.053 A 
ATOM     26  C   UNL     1      12.508  15.443 -11.478  1.00  0.00     0.151 A 
ATOM     27  F   UNL     1      10.669  14.238 -10.629  1.00  0.00    -0.203 F 
BRANCH  23  28
ATOM     28  C   UNL     1      13.871  15.870 -14.993  1.00  0.00     0.033 C 
ATOM     29  C   UNL     1      15.027  16.727 -14.498  1.00  0.00     0.009 C 
ENDBRANCH  23  28
BRANCH  26  30
ATOM     30  O   UNL     1      12.840  15.884 -10.229  1.00  0.00    -0.505 OA
ATOM     31  H   UNL     1      12.182  15.511  -9.612  1.00  0.00     0.293 HD
ENDBRANCH  26  30
ENDBRANCH   3  21
TORSDOF 7
ENDMDL
MODEL 9
REMARK minimizedAffinity -8.59959507
REMARK CNNscore 0.207559004
REMARK CNNaffinity 5.67051744
REMARK SMILES C=CC(=O)N1CCC[C@H](Oc2cc(-c3cc(F)c(O)cc3CC)cn3cncc23)C1
REMARK SMILES IDX 11 1 12 2 13 3 24 4 25 5 26 6 27 7 28 8 29 9 10 10 9 11 5 12
REMARK SMILES IDX 6 13 30 14 7 15 8 16 3 17 4 18 2 19 1 20 14 21 15 22 21 23
REMARK SMILES IDX 16 24 20 25 18 26 17 27 22 28 23 29 19 30
REMARK H PARENT 19 31
ROOT
ATOM      1  C   UNL     1      11.135  14.398 -17.515  1.00  0.00     0.146 A 
ATOM      2  C   UNL     1      12.213  15.007 -16.985  1.00  0.00     0.059 A 
ATOM      3  C   UNL     1      12.409  15.114 -15.537  1.00  0.00     0.002 A 
ATOM      4  C   UNL     1      11.485  14.552 -14.730  1.00  0.00     0.101 A 
ATOM      5  N   UNL     1      10.396  13.892 -15.293  1.00  0.00    -0.302 N 
ATOM      6  C   UNL     1       9.354  13.236 -14.684  1.00  0.00     0.204 A 
ATOM      7  N   UNL     1       8.517  12.716 -15.555  1.00  0.00    -0.244 NA
ATOM      8  C   UNL     1       9.031  13.042 -16.786  1.00  0.00     0.143 A 
ATOM      9  C   UNL     1      10.185  13.782 -16.658  1.00  0.00     0.107 A 
ENDROOT
BRANCH   1  10
ATOM     10  O   UNL     1      10.962  14.246 -18.869  1.00  0.00    -0.486 OA
BRANCH  10  11
ATOM     11  C   UNL     1      12.197  13.997 -19.563  1.00  0.00     0.193 C 
ATOM     12  N   UNL     1      13.409  14.757 -21.630  1.00  0.00    -0.335 N 
ATOM     13  C   UNL     1      13.493  13.384 -22.129  1.00  0.00     0.120 C 
ATOM     14  C   UNL     1      12.318  15.035 -20.690  1.00  0.00     0.164 C 
ATOM     15  C   UNL     1      13.409  12.350 -21.012  1.00  0.00     0.025 C 
ATOM     16  C   UNL     1      12.184  12.579 -20.138  1.00  0.00     0.049 C 
BRANCH  12  17
ATOM     17  C   UNL     1      14.106  15.726 -22.347  1.00  0.00     0.246 C 
ATOM     18  O   UNL     1      13.946  15.908 -23.552  1.00  0.00    -0.270 OA
BRANCH  17  19
ATOM     19  C   UNL     1      15.077  16.572 -21.600  1.00  0.00     0.063 C 
ATOM     20  C   UNL     1      14.791  17.855 -21.346  1.00  0.00     0.014 C 
ENDBRANCH  17  19
ENDBRANCH  12  17
ENDBRANCH  10  11
ENDBRANCH   1  10
BRANCH   3  21
ATOM     21  C   UNL     1      13.559  15.809 -14.933  1.00  0.00    -0.010 A 
ATOM     22  C   UNL     1      14.608  16.192 -15.786  1.00  0.00     0.052 A 
ATOM     23  C   UNL     1      13.647  16.078 -13.548  1.00  0.00    -0.036 A 
ATOM     24  C   UNL     1      15.720  16.841 -15.267  1.00  0.00     0.165 A 
ATOM     25  C   UNL     1      14.784  16.743 -13.050  1.00  0.00     0.053 A 
ATOM     26  C   UNL     1      15.810  17.117 -13.909  1.00  0.00     0.151 A 
ATOM     27  F   UNL     1      16.720  17.207 -16.082  1.00  0.00    -0.203 F 
BRANCH  23  28
ATOM     28  C   UNL     1      12.554  15.703 -12.568  1.00  0.00     0.033 C 
ATOM     29  C   UNL     1      13.117  15.321 -11.207  1.00  0.00     0.009 C 
ENDBRANCH  23  28
BRANCH  26  30
ATOM     30  O   UNL     1      16.898  17.756 -13.390  1.00  0.00    -0.505 OA
ATOM     31  H   UNL     1      17.507  17.930 -14.132  1.00  0.00     0.293 HD
ENDBRANCH  26  30
ENDBRANCH   3  21
TORSDOF 7
ENDMDL
