MODEL 1
REMARK minimizedAffinity -9.80774021
REMARK CNNscore 0.976757467
REMARK CNNaffinity 8.64693546
REMARK SMILES C=CCOC(=O)N1[C@@H]2CCC[C@H]1C[C@@H](Nc1nc(Nc3cc(C)[nH]n3)cc3nc(CN4CCOCC4)ccc13)C2
REMARK SMILES IDX 7 1 8 2 9 3 10 4 11 5 12 6 13 7 14 8 40 9 5 10 6 11 4 12
REMARK SMILES IDX 3 13 2 14 1 15 15 16 16 18 17 19 39 20 18 21 38 22 27 23
REMARK SMILES IDX 26 24 37 25 28 26 29 27 19 28 20 30 21 31 25 32 22 33 24 34
REMARK SMILES IDX 23 35 30 37 31 38 32 39 36 40 33 41 35 42 34 43
REMARK H PARENT 15 17 19 29 24 36
ROOT
ATOM      1  N   UNL     1       9.854  13.280 -17.045  1.00  0.00    -0.302 N 
ATOM      2  C   UNL     1      10.906  12.456 -17.634  1.00  0.00     0.091 C 
ATOM      3  C   UNL     1      11.618  11.615 -16.556  1.00  0.00     0.025 C 
ATOM      4  C   UNL     1      11.173  11.948 -15.134  1.00  0.00     0.004 C 
ATOM      5  C   UNL     1      11.045  13.448 -14.882  1.00  0.00     0.025 C 
ATOM      6  C   UNL     1      10.357  14.204 -16.034  1.00  0.00     0.091 C 
ATOM      7  C   UNL     1      11.278  15.225 -16.726  1.00  0.00     0.050 C 
ATOM      8  C   UNL     1      12.388  14.585 -17.593  1.00  0.00     0.084 C 
ATOM      9  C   UNL     1      11.858  13.384 -18.413  1.00  0.00     0.050 C 
ENDROOT
BRANCH   1  10
ATOM     10  C   UNL     1       8.658  13.559 -17.688  1.00  0.00     0.410 C 
ATOM     11  O   UNL     1       8.318  14.683 -18.037  1.00  0.00    -0.224 OA
BRANCH  10  12
ATOM     12  O   UNL     1       7.910  12.443 -17.893  1.00  0.00    -0.445 OA
BRANCH  12  13
ATOM     13  C   UNL     1       8.172  11.716 -19.099  1.00  0.00     0.262 C 
BRANCH  13  14
ATOM     14  C   UNL     1       7.005  10.818 -19.382  1.00  0.00     0.006 C 
ATOM     15  C   UNL     1       7.024   9.788 -20.239  1.00  0.00     0.007 C 
ENDBRANCH  13  14
ENDBRANCH  12  13
ENDBRANCH  10  12
ENDBRANCH   1  10
BRANCH   8  16
ATOM     16  N   UNL     1      13.543  14.161 -16.785  1.00  0.00    -0.367 N 
ATOM     17  H   UNL     1      14.238  13.674 -17.348  1.00  0.00     0.162 HD
BRANCH  16  18
ATOM     18  C   UNL     1      14.247  15.172 -16.088  1.00  0.00     0.138 A 
ATOM     19  N   UNL     1      13.932  15.419 -14.801  1.00  0.00    -0.213 NA
ATOM     20  C   UNL     1      15.257  15.891 -16.759  1.00  0.00     0.043 A 
ATOM     21  C   UNL     1      14.587  16.391 -14.132  1.00  0.00     0.136 A 
ATOM     22  C   UNL     1      15.659  15.660 -18.093  1.00  0.00     0.016 A 
ATOM     23  C   UNL     1      15.926  16.902 -16.055  1.00  0.00     0.078 A 
ATOM     24  C   UNL     1      15.575  17.141 -14.742  1.00  0.00     0.076 A 
ATOM     25  C   UNL     1      16.667  16.426 -18.668  1.00  0.00     0.026 A 
ATOM     26  N   UNL     1      16.902  17.648 -16.610  1.00  0.00    -0.251 NA
ATOM     27  C   UNL     1      17.268  17.409 -17.896  1.00  0.00     0.055 A 
BRANCH  21  28
ATOM     28  N   UNL     1      14.173  16.556 -12.811  1.00  0.00    -0.323 N 
ATOM     29  H   UNL     1      14.619  17.393 -12.456  1.00  0.00     0.170 HD
BRANCH  28  30
ATOM     30  C   UNL     1      13.353  15.847 -12.011  1.00  0.00     0.153 A 
ATOM     31  C   UNL     1      12.053  15.471 -12.436  1.00  0.00     0.071 A 
ATOM     32  N   UNL     1      13.587  15.406 -10.773  1.00  0.00    -0.158 NA
ATOM     33  C   UNL     1      11.501  14.772 -11.388  1.00  0.00     0.034 A 
ATOM     34  N   UNL     1      12.466  14.762 -10.421  1.00  0.00    -0.281 N 
ATOM     35  C   UNL     1      10.187  14.122 -11.207  1.00  0.00     0.066 C 
ATOM     36  H   UNL     1      12.428  14.337  -9.501  1.00  0.00     0.190 HD
ENDBRANCH  28  30
ENDBRANCH  21  28
BRANCH  27  37
ATOM     37  C   UNL     1      18.371  18.276 -18.477  1.00  0.00     0.140 C 
BRANCH  37  38
ATOM     38  N   UNL     1      17.888  19.305 -19.423  1.00  0.00    -0.293 NA
ATOM     39  C   UNL     1      17.366  20.489 -18.706  1.00  0.00     0.113 C 
ATOM     40  C   UNL     1      16.847  18.744 -20.320  1.00  0.00     0.113 C 
ATOM     41  C   UNL     1      15.834  20.511 -18.586  1.00  0.00     0.175 C 
ATOM     42  C   UNL     1      15.926  19.839 -20.880  1.00  0.00     0.175 C 
ATOM     43  O   UNL     1      15.175  20.513 -19.860  1.00  0.00    -0.379 OA
ENDBRANCH  37  38
ENDBRANCH  27  37
ENDBRANCH  16  18
ENDBRANCH   8  16
TORSDOF 10
ENDMDL
MODEL 2
REMARK minimizedAffinity -9.85738564
REMARK CNNscore 0.974022448
REMARK CNNaffinity 8.61622334
REMARK SMILES C=CCOC(=O)N1[C@@H]2CCC[C@H]1C[C@@H](Nc1nc(Nc3cc(C)[nH]n3)cc3nc(CN4CCOCC4)ccc13)C2
REMARK SMILES IDX 7 1 8 2 9 3 10 4 11 5 12 6 13 7 14 8 40 9 5 10 6 11 4 12
REMARK SMILES IDX 3 13 2 14 1 15 15 16 16 18 17 19 39 20 18 21 38 22 27 23
REMARK SMILES IDX 26 24 37 25 28 26 29 27 19 28 20 30 21 31 25 32 22 33 24 34
REMARK SMILES IDX 23 35 30 37 31 38 32 39 36 40 33 41 35 42 34 43
REMARK H PARENT 15 17 19 29 24 36
ROOT
ATOM      1  N   UNL     1       9.912  13.121 -17.011  1.00  0.00    -0.302 N 
ATOM      2  C   UNL     1      10.987  12.268 -17.511  1.00  0.00     0.091 C 
ATOM      3  C   UNL     1      11.671  11.508 -16.358  1.00  0.00     0.025 C 
ATOM      4  C   UNL     1      11.181  11.932 -14.975  1.00  0.00     0.004 C 
ATOM      5  C   UNL     1      11.036  13.445 -14.830  1.00  0.00     0.025 C 
ATOM      6  C   UNL     1      10.378  14.116 -16.050  1.00  0.00     0.091 C 
ATOM      7  C   UNL     1      11.314  15.095 -16.783  1.00  0.00     0.050 C 
ATOM      8  C   UNL     1      12.453  14.408 -17.571  1.00  0.00     0.084 C 
ATOM      9  C   UNL     1      11.956  13.149 -18.322  1.00  0.00     0.050 C 
ENDROOT
BRANCH   1  10
ATOM     10  C   UNL     1       8.734  13.346 -17.707  1.00  0.00     0.410 C 
ATOM     11  O   UNL     1       8.335  14.459 -18.028  1.00  0.00    -0.224 OA
BRANCH  10  12
ATOM     12  O   UNL     1       8.079  12.192 -17.998  1.00  0.00    -0.445 OA
BRANCH  12  13
ATOM     13  C   UNL     1       8.224  11.699 -19.335  1.00  0.00     0.262 C 
BRANCH  13  14
ATOM     14  C   UNL     1       7.227  10.600 -19.553  1.00  0.00     0.006 C 
ATOM     15  C   UNL     1       7.144   9.854 -20.663  1.00  0.00     0.007 C 
ENDBRANCH  13  14
ENDBRANCH  12  13
ENDBRANCH  10  12
ENDBRANCH   1  10
BRANCH   8  16
ATOM     16  N   UNL     1      13.586  14.048 -16.702  1.00  0.00    -0.367 N 
ATOM     17  H   UNL     1      14.319  13.565 -17.218  1.00  0.00     0.162 HD
BRANCH  16  18
ATOM     18  C   UNL     1      14.229  15.105 -16.013  1.00  0.00     0.138 A 
ATOM     19  N   UNL     1      13.905  15.339 -14.726  1.00  0.00    -0.213 NA
ATOM     20  C   UNL     1      15.189  15.882 -16.693  1.00  0.00     0.043 A 
ATOM     21  C   UNL     1      14.502  16.353 -14.065  1.00  0.00     0.136 A 
ATOM     22  C   UNL     1      15.598  15.669 -18.028  1.00  0.00     0.016 A 
ATOM     23  C   UNL     1      15.797  16.937 -15.998  1.00  0.00     0.078 A 
ATOM     24  C   UNL     1      15.439  17.160 -14.684  1.00  0.00     0.076 A 
ATOM     25  C   UNL     1      16.554  16.493 -18.612  1.00  0.00     0.026 A 
ATOM     26  N   UNL     1      16.723  17.738 -16.561  1.00  0.00    -0.251 NA
ATOM     27  C   UNL     1      17.097  17.516 -17.848  1.00  0.00     0.055 A 
BRANCH  21  28
ATOM     28  N   UNL     1      14.085  16.499 -12.743  1.00  0.00    -0.323 N 
ATOM     29  H   UNL     1      14.520  17.338 -12.379  1.00  0.00     0.170 HD
BRANCH  28  30
ATOM     30  C   UNL     1      13.274  15.772 -11.951  1.00  0.00     0.153 A 
ATOM     31  C   UNL     1      11.974  15.394 -12.376  1.00  0.00     0.071 A 
ATOM     32  N   UNL     1      13.517  15.312 -10.722  1.00  0.00    -0.158 NA
ATOM     33  C   UNL     1      11.432  14.674 -11.337  1.00  0.00     0.034 A 
ATOM     34  N   UNL     1      12.402  14.654 -10.375  1.00  0.00    -0.281 N 
ATOM     35  C   UNL     1      10.123  14.012 -11.161  1.00  0.00     0.066 C 
ATOM     36  H   UNL     1      12.371  14.214  -9.462  1.00  0.00     0.190 HD
ENDBRANCH  28  30
ENDBRANCH  21  28
BRANCH  27  37
ATOM     37  C   UNL     1      18.140  18.446 -18.440  1.00  0.00     0.140 C 
BRANCH  37  38
ATOM     38  N   UNL     1      19.168  18.886 -17.473  1.00  0.00    -0.293 NA
ATOM     39  C   UNL     1      19.635  20.258 -17.773  1.00  0.00     0.113 C 
ATOM     40  C   UNL     1      20.314  17.943 -17.461  1.00  0.00     0.113 C 
ATOM     41  C   UNL     1      20.967  20.302 -18.538  1.00  0.00     0.175 C 
ATOM     42  C   UNL     1      21.604  18.615 -16.966  1.00  0.00     0.175 C 
ATOM     43  O   UNL     1      22.042  19.680 -17.823  1.00  0.00    -0.379 OA
ENDBRANCH  37  38
ENDBRANCH  27  37
ENDBRANCH  16  18
ENDBRANCH   8  16
TORSDOF 10
ENDMDL
MODEL 3
REMARK minimizedAffinity -9.63321877
REMARK CNNscore 0.942327797
REMARK CNNaffinity 8.46778488
REMARK SMILES C=CCOC(=O)N1[C@@H]2CCC[C@H]1C[C@@H](Nc1nc(Nc3cc(C)[nH]n3)cc3nc(CN4CCOCC4)ccc13)C2
REMARK SMILES IDX 7 1 8 2 9 3 10 4 11 5 12 6 13 7 14 8 40 9 5 10 6 11 4 12
REMARK SMILES IDX 3 13 2 14 1 15 15 16 16 18 17 19 39 20 18 21 38 22 27 23
REMARK SMILES IDX 26 24 37 25 28 26 29 27 19 28 20 30 21 31 25 32 22 33 24 34
REMARK SMILES IDX 23 35 30 37 31 38 32 39 36 40 33 41 35 42 34 43
REMARK H PARENT 15 17 19 29 24 36
ROOT
ATOM      1  N   UNL     1      10.992  12.710 -16.637  1.00  0.00    -0.302 N 
ATOM      2  C   UNL     1      11.348  13.560 -15.505  1.00  0.00     0.091 C 
ATOM      3  C   UNL     1      10.829  14.996 -15.708  1.00  0.00     0.025 C 
ATOM      4  C   UNL     1      10.214  15.232 -17.086  1.00  0.00     0.004 C 
ATOM      5  C   UNL     1      11.029  14.613 -18.218  1.00  0.00     0.025 C 
ATOM      6  C   UNL     1      11.536  13.193 -17.902  1.00  0.00     0.091 C 
ATOM      7  C   UNL     1      13.071  13.097 -17.837  1.00  0.00     0.050 C 
ATOM      8  C   UNL     1      13.694  13.771 -16.593  1.00  0.00     0.084 C 
ATOM      9  C   UNL     1      12.874  13.483 -15.311  1.00  0.00     0.050 C 
ENDROOT
BRANCH   1  10
ATOM     10  C   UNL     1      10.660  11.370 -16.507  1.00  0.00     0.410 C 
ATOM     11  O   UNL     1      11.310  10.567 -15.848  1.00  0.00    -0.224 OA
BRANCH  10  12
ATOM     12  O   UNL     1       9.528  11.051 -17.188  1.00  0.00    -0.445 OA
BRANCH  12  13
ATOM     13  C   UNL     1       8.627  12.130 -17.462  1.00  0.00     0.262 C 
BRANCH  13  14
ATOM     14  C   UNL     1       8.086  11.964 -18.851  1.00  0.00     0.006 C 
ATOM     15  C   UNL     1       7.306  10.951 -19.251  1.00  0.00     0.007 C 
ENDBRANCH  13  14
ENDBRANCH  12  13
ENDBRANCH  10  12
ENDBRANCH   1  10
BRANCH   8  16
ATOM     16  N   UNL     1      13.839  15.226 -16.768  1.00  0.00    -0.367 N 
ATOM     17  H   UNL     1      12.935  15.689 -16.839  1.00  0.00     0.162 HD
BRANCH  16  18
ATOM     18  C   UNL     1      14.558  15.926 -15.770  1.00  0.00     0.138 A 
ATOM     19  N   UNL     1      14.105  15.902 -14.501  1.00  0.00    -0.213 NA
ATOM     20  C   UNL     1      15.727  16.627 -16.131  1.00  0.00     0.043 A 
ATOM     21  C   UNL     1      14.775  16.579 -13.544  1.00  0.00     0.136 A 
ATOM     22  C   UNL     1      16.272  16.665 -17.433  1.00  0.00     0.016 A 
ATOM     23  C   UNL     1      16.410  17.331 -15.130  1.00  0.00     0.078 A 
ATOM     24  C   UNL     1      15.918  17.298 -13.841  1.00  0.00     0.076 A 
ATOM     25  C   UNL     1      17.432  17.388 -17.690  1.00  0.00     0.026 A 
ATOM     26  N   UNL     1      17.533  18.035 -15.376  1.00  0.00    -0.251 NA
ATOM     27  C   UNL     1      18.036  18.058 -16.637  1.00  0.00     0.055 A 
BRANCH  21  28
ATOM     28  N   UNL     1      14.211  16.483 -12.273  1.00  0.00    -0.323 N 
ATOM     29  H   UNL     1      14.686  17.151 -11.679  1.00  0.00     0.170 HD
BRANCH  28  30
ATOM     30  C   UNL     1      13.228  15.716 -11.760  1.00  0.00     0.153 A 
ATOM     31  C   UNL     1      12.026  15.485 -12.476  1.00  0.00     0.071 A 
ATOM     32  N   UNL     1      13.202  15.087 -10.583  1.00  0.00    -0.158 NA
ATOM     33  C   UNL     1      11.258  14.676 -11.670  1.00  0.00     0.034 A 
ATOM     34  N   UNL     1      12.015  14.468 -10.552  1.00  0.00    -0.281 N 
ATOM     35  C   UNL     1       9.914  14.087 -11.842  1.00  0.00     0.066 C 
ATOM     36  H   UNL     1      11.784  13.918  -9.732  1.00  0.00     0.190 HD
ENDBRANCH  28  30
ENDBRANCH  21  28
BRANCH  27  37
ATOM     37  C   UNL     1      19.301  18.867 -16.865  1.00  0.00     0.140 C 
BRANCH  37  38
ATOM     38  N   UNL     1      20.508  18.279 -16.246  1.00  0.00    -0.293 NA
ATOM     39  C   UNL     1      21.481  19.328 -15.866  1.00  0.00     0.113 C 
ATOM     40  C   UNL     1      21.140  17.296 -17.161  1.00  0.00     0.113 C 
ATOM     41  C   UNL     1      22.624  19.504 -16.879  1.00  0.00     0.175 C 
ATOM     42  C   UNL     1      22.635  17.112 -16.858  1.00  0.00     0.175 C 
ATOM     43  O   UNL     1      23.397  18.311 -17.060  1.00  0.00    -0.379 OA
ENDBRANCH  37  38
ENDBRANCH  27  37
ENDBRANCH  16  18
ENDBRANCH   8  16
TORSDOF 10
ENDMDL
MODEL 4
REMARK minimizedAffinity -8.59669495
REMARK CNNscore 0.887292325
REMARK CNNaffinity 8.13861847
REMARK SMILES C=CCOC(=O)N1[C@@H]2CCC[C@H]1C[C@@H](Nc1nc(Nc3cc(C)[nH]n3)cc3nc(CN4CCOCC4)ccc13)C2
REMARK SMILES IDX 7 1 8 2 9 3 10 4 11 5 12 6 13 7 14 8 40 9 5 10 6 11 4 12
REMARK SMILES IDX 3 13 2 14 1 15 15 16 16 18 17 19 39 20 18 21 38 22 27 23
REMARK SMILES IDX 26 24 37 25 28 26 29 27 19 28 20 30 21 31 25 32 22 33 24 34
REMARK SMILES IDX 23 35 30 37 31 38 32 39 36 40 33 41 35 42 34 43
REMARK H PARENT 15 17 19 29 24 36
ROOT
ATOM      1  N   UNL     1      18.934  19.273 -17.248  1.00  0.00    -0.302 N 
ATOM      2  C   UNL     1      19.025  18.106 -16.376  1.00  0.00     0.091 C 
ATOM      3  C   UNL     1      19.246  16.820 -17.196  1.00  0.00     0.025 C 
ATOM      4  C   UNL     1      19.164  17.040 -18.705  1.00  0.00     0.004 C 
ATOM      5  C   UNL     1      18.005  17.943 -19.116  1.00  0.00     0.025 C 
ATOM      6  C   UNL     1      17.842  19.179 -18.211  1.00  0.00     0.091 C 
ATOM      7  C   UNL     1      16.512  19.194 -17.436  1.00  0.00     0.050 C 
ATOM      8  C   UNL     1      16.432  18.149 -16.299  1.00  0.00     0.084 C 
ATOM      9  C   UNL     1      17.756  18.063 -15.502  1.00  0.00     0.050 C 
ENDROOT
BRANCH   1  10
ATOM     10  C   UNL     1      19.430  20.521 -16.901  1.00  0.00     0.410 C 
ATOM     11  O   UNL     1      19.227  21.540 -17.550  1.00  0.00    -0.224 OA
BRANCH  10  12
ATOM     12  O   UNL     1      20.158  20.486 -15.754  1.00  0.00    -0.445 OA
BRANCH  12  13
ATOM     13  C   UNL     1      21.555  20.773 -15.879  1.00  0.00     0.262 C 
BRANCH  13  14
ATOM     14  C   UNL     1      22.334  19.545 -15.512  1.00  0.00     0.006 C 
ATOM     15  C   UNL     1      22.565  19.133 -14.259  1.00  0.00     0.007 C 
ENDBRANCH  13  14
ENDBRANCH  12  13
ENDBRANCH  10  12
ENDBRANCH   1  10
BRANCH   8  16
ATOM     16  N   UNL     1      16.071  16.814 -16.802  1.00  0.00    -0.367 N 
ATOM     17  H   UNL     1      16.830  16.146 -16.678  1.00  0.00     0.162 HD
BRANCH  16  18
ATOM     18  C   UNL     1      14.923  16.204 -16.241  1.00  0.00     0.138 A 
ATOM     19  N   UNL     1      14.631  16.427 -14.945  1.00  0.00    -0.213 NA
ATOM     20  C   UNL     1      14.117  15.382 -17.056  1.00  0.00     0.043 A 
ATOM     21  C   UNL     1      13.547  15.839 -14.397  1.00  0.00     0.136 A 
ATOM     22  C   UNL     1      14.346  15.134 -18.426  1.00  0.00     0.016 A 
ATOM     23  C   UNL     1      12.997  14.771 -16.473  1.00  0.00     0.078 A 
ATOM     24  C   UNL     1      12.728  15.009 -15.141  1.00  0.00     0.076 A 
ATOM     25  C   UNL     1      13.493  14.304 -19.145  1.00  0.00     0.026 A 
ATOM     26  N   UNL     1      12.169  13.965 -17.167  1.00  0.00    -0.251 NA
ATOM     27  C   UNL     1      12.413  13.740 -18.483  1.00  0.00     0.055 A 
BRANCH  21  28
ATOM     28  N   UNL     1      13.349  16.141 -13.051  1.00  0.00    -0.323 N 
ATOM     29  H   UNL     1      13.720  17.069 -12.890  1.00  0.00     0.170 HD
BRANCH  28  30
ATOM     30  C   UNL     1      12.795  15.459 -12.029  1.00  0.00     0.153 A 
ATOM     31  C   UNL     1      11.517  14.857 -12.153  1.00  0.00     0.071 A 
ATOM     32  N   UNL     1      13.299  15.243 -10.812  1.00  0.00    -0.158 NA
ATOM     33  C   UNL     1      11.264  14.257 -10.941  1.00  0.00     0.034 A 
ATOM     34  N   UNL     1      12.367  14.518 -10.179  1.00  0.00    -0.281 N 
ATOM     35  C   UNL     1      10.115  13.476 -10.437  1.00  0.00     0.066 C 
ATOM     36  H   UNL     1      12.550  14.235  -9.222  1.00  0.00     0.190 HD
ENDBRANCH  28  30
ENDBRANCH  21  28
BRANCH  27  37
ATOM     37  C   UNL     1      11.454  12.823 -19.221  1.00  0.00     0.140 C 
BRANCH  37  38
ATOM     38  N   UNL     1      10.459  12.166 -18.346  1.00  0.00    -0.293 NA
ATOM     39  C   UNL     1       9.147  12.847 -18.421  1.00  0.00     0.113 C 
ATOM     40  C   UNL     1      10.941  12.127 -16.943  1.00  0.00     0.113 C 
ATOM     41  C   UNL     1       8.885  13.811 -17.254  1.00  0.00     0.175 C 
ATOM     42  C   UNL     1       9.779  12.021 -15.943  1.00  0.00     0.175 C 
ATOM     43  O   UNL     1       8.907  13.159 -15.977  1.00  0.00    -0.379 OA
ENDBRANCH  37  38
ENDBRANCH  27  37
ENDBRANCH  16  18
ENDBRANCH   8  16
TORSDOF 10
ENDMDL
MODEL 5
REMARK minimizedAffinity -7.60221195
REMARK CNNscore 0.712647974
REMARK CNNaffinity 7.55897522
REMARK SMILES C=CCOC(=O)N1[C@@H]2CCC[C@H]1C[C@@H](Nc1nc(Nc3cc(C)[nH]n3)cc3nc(CN4CCOCC4)ccc13)C2
REMARK SMILES IDX 7 1 8 2 9 3 10 4 11 5 12 6 13 7 14 8 40 9 5 10 6 11 4 12
REMARK SMILES IDX 3 13 2 14 1 15 15 16 16 18 17 19 39 20 18 21 38 22 27 23
REMARK SMILES IDX 26 24 37 25 28 26 29 27 19 28 20 30 21 31 25 32 22 33 24 34
REMARK SMILES IDX 23 35 30 37 31 38 32 39 36 40 33 41 35 42 34 43
REMARK H PARENT 15 17 19 29 24 36
ROOT
ATOM      1  N   UNL     1      19.514  19.289 -16.800  1.00  0.00    -0.302 N 
ATOM      2  C   UNL     1      19.513  17.982 -16.150  1.00  0.00     0.091 C 
ATOM      3  C   UNL     1      19.634  16.848 -17.186  1.00  0.00     0.025 C 
ATOM      4  C   UNL     1      19.570  17.337 -18.632  1.00  0.00     0.004 C 
ATOM      5  C   UNL     1      18.485  18.385 -18.861  1.00  0.00     0.025 C 
ATOM      6  C   UNL     1      18.419  19.450 -17.750  1.00  0.00     0.091 C 
ATOM      7  C   UNL     1      17.093  19.430 -16.968  1.00  0.00     0.050 C 
ATOM      8  C   UNL     1      16.932  18.210 -16.032  1.00  0.00     0.084 C 
ATOM      9  C   UNL     1      18.245  17.883 -15.281  1.00  0.00     0.050 C 
ENDROOT
BRANCH   1  10
ATOM     10  C   UNL     1      20.105  20.414 -16.246  1.00  0.00     0.410 C 
ATOM     11  O   UNL     1      20.430  21.403 -16.892  1.00  0.00    -0.224 OA
BRANCH  10  12
ATOM     12  O   UNL     1      20.275  20.297 -14.902  1.00  0.00    -0.445 OA
BRANCH  12  13
ATOM     13  C   UNL     1      21.080  21.302 -14.274  1.00  0.00     0.262 C 
BRANCH  13  14
ATOM     14  C   UNL     1      22.439  20.729 -14.001  1.00  0.00     0.006 C 
ATOM     15  C   UNL     1      22.714  19.421 -13.918  1.00  0.00     0.007 C 
ENDBRANCH  13  14
ENDBRANCH  12  13
ENDBRANCH  10  12
ENDBRANCH   1  10
BRANCH   8  16
ATOM     16  N   UNL     1      16.468  17.016 -16.757  1.00  0.00    -0.367 N 
ATOM     17  H   UNL     1      17.190  16.300 -16.805  1.00  0.00     0.162 HD
BRANCH  16  18
ATOM     18  C   UNL     1      15.312  16.369 -16.258  1.00  0.00     0.138 A 
ATOM     19  N   UNL     1      14.904  16.636 -15.002  1.00  0.00    -0.213 NA
ATOM     20  C   UNL     1      14.620  15.464 -17.090  1.00  0.00     0.043 A 
ATOM     21  C   UNL     1      13.812  16.013 -14.512  1.00  0.00     0.136 A 
ATOM     22  C   UNL     1      14.974  15.165 -18.423  1.00  0.00     0.016 A 
ATOM     23  C   UNL     1      13.491  14.818 -16.567  1.00  0.00     0.078 A 
ATOM     24  C   UNL     1      13.102  15.103 -15.274  1.00  0.00     0.076 A 
ATOM     25  C   UNL     1      14.228  14.254 -19.163  1.00  0.00     0.026 A 
ATOM     26  N   UNL     1      12.767  13.933 -17.281  1.00  0.00    -0.251 NA
ATOM     27  C   UNL     1      13.129  13.660 -18.561  1.00  0.00     0.055 A 
BRANCH  21  28
ATOM     28  N   UNL     1      13.489  16.367 -13.203  1.00  0.00    -0.323 N 
ATOM     29  H   UNL     1      13.753  17.336 -13.076  1.00  0.00     0.170 HD
BRANCH  28  30
ATOM     30  C   UNL     1      12.933  15.688 -12.179  1.00  0.00     0.153 A 
ATOM     31  C   UNL     1      11.688  15.026 -12.325  1.00  0.00     0.071 A 
ATOM     32  N   UNL     1      13.408  15.529 -10.942  1.00  0.00    -0.158 NA
ATOM     33  C   UNL     1      11.423  14.448 -11.104  1.00  0.00     0.034 A 
ATOM     34  N   UNL     1      12.489  14.779 -10.317  1.00  0.00    -0.281 N 
ATOM     35  C   UNL     1      10.296  13.629 -10.614  1.00  0.00     0.066 C 
ATOM     36  H   UNL     1      12.654  14.531  -9.347  1.00  0.00     0.190 HD
ENDBRANCH  28  30
ENDBRANCH  21  28
BRANCH  27  37
ATOM     37  C   UNL     1      12.284  12.655 -19.323  1.00  0.00     0.140 C 
BRANCH  37  38
ATOM     38  N   UNL     1      11.624  13.214 -20.521  1.00  0.00    -0.293 NA
ATOM     39  C   UNL     1      12.076  12.527 -21.752  1.00  0.00     0.113 C 
ATOM     40  C   UNL     1      11.872  14.673 -20.624  1.00  0.00     0.113 C 
ATOM     41  C   UNL     1      13.154  13.300 -22.528  1.00  0.00     0.175 C 
ATOM     42  C   UNL     1      11.742  15.176 -22.070  1.00  0.00     0.175 C 
ATOM     43  O   UNL     1      12.715  14.598 -22.952  1.00  0.00    -0.379 OA
ENDBRANCH  37  38
ENDBRANCH  27  37
ENDBRANCH  16  18
ENDBRANCH   8  16
TORSDOF 10
ENDMDL
MODEL 6
REMARK minimizedAffinity -7.91396475
REMARK CNNscore 0.611226618
REMARK CNNaffinity 7.41175842
REMARK SMILES C=CCOC(=O)N1[C@@H]2CCC[C@H]1C[C@@H](Nc1nc(Nc3cc(C)[nH]n3)cc3nc(CN4CCOCC4)ccc13)C2
REMARK SMILES IDX 7 1 8 2 9 3 10 4 11 5 12 6 13 7 14 8 40 9 5 10 6 11 4 12
REMARK SMILES IDX 3 13 2 14 1 15 15 16 16 18 17 19 39 20 18 21 38 22 27 23
REMARK SMILES IDX 26 24 37 25 28 26 29 27 19 28 20 30 21 31 25 32 22 33 24 34
REMARK SMILES IDX 23 35 30 37 31 38 32 39 36 40 33 41 35 42 34 43
REMARK H PARENT 15 17 19 29 24 36
ROOT
ATOM      1  N   UNL     1      18.786  19.273 -17.924  1.00  0.00    -0.302 N 
ATOM      2  C   UNL     1      17.989  19.207 -16.702  1.00  0.00     0.091 C 
ATOM      3  C   UNL     1      18.609  18.223 -15.691  1.00  0.00     0.025 C 
ATOM      4  C   UNL     1      19.799  17.447 -16.249  1.00  0.00     0.004 C 
ATOM      5  C   UNL     1      19.569  16.940 -17.671  1.00  0.00     0.025 C 
ATOM      6  C   UNL     1      18.909  17.983 -18.593  1.00  0.00     0.091 C 
ATOM      7  C   UNL     1      17.514  17.559 -19.087  1.00  0.00     0.050 C 
ATOM      8  C   UNL     1      16.420  17.594 -17.994  1.00  0.00     0.084 C 
ATOM      9  C   UNL     1      16.543  18.848 -17.096  1.00  0.00     0.050 C 
ENDROOT
BRANCH   1  10
ATOM     10  C   UNL     1      18.959  20.438 -18.656  1.00  0.00     0.410 C 
ATOM     11  O   UNL     1      19.258  20.459 -19.844  1.00  0.00    -0.224 OA
BRANCH  10  12
ATOM     12  O   UNL     1      18.750  21.553 -17.907  1.00  0.00    -0.445 OA
BRANCH  12  13
ATOM     13  C   UNL     1      19.719  22.599 -18.041  1.00  0.00     0.262 C 
BRANCH  13  14
ATOM     14  C   UNL     1      20.608  22.589 -16.834  1.00  0.00     0.006 C 
ATOM     15  C   UNL     1      21.788  23.219 -16.749  1.00  0.00     0.007 C 
ENDBRANCH  13  14
ENDBRANCH  12  13
ENDBRANCH  10  12
ENDBRANCH   1  10
BRANCH   8  16
ATOM     16  N   UNL     1      16.439  16.383 -17.157  1.00  0.00    -0.367 N 
ATOM     17  H   UNL     1      17.084  16.477 -16.374  1.00  0.00     0.162 HD
BRANCH  16  18
ATOM     18  C   UNL     1      15.207  15.968 -16.598  1.00  0.00     0.138 A 
ATOM     19  N   UNL     1      14.923  16.298 -15.322  1.00  0.00    -0.213 NA
ATOM     20  C   UNL     1      14.311  15.222 -17.392  1.00  0.00     0.043 A 
ATOM     21  C   UNL     1      13.757  15.894 -14.776  1.00  0.00     0.136 A 
ATOM     22  C   UNL     1      14.531  14.873 -18.741  1.00  0.00     0.016 A 
ATOM     23  C   UNL     1      13.106  14.804 -16.810  1.00  0.00     0.078 A 
ATOM     24  C   UNL     1      12.846  15.147 -15.499  1.00  0.00     0.076 A 
ATOM     25  C   UNL     1      13.585  14.131 -19.441  1.00  0.00     0.026 A 
ATOM     26  N   UNL     1      12.188  14.083 -17.484  1.00  0.00    -0.251 NA
ATOM     27  C   UNL     1      12.424  13.756 -18.781  1.00  0.00     0.055 A 
BRANCH  21  28
ATOM     28  N   UNL     1      13.577  16.292 -13.452  1.00  0.00    -0.323 N 
ATOM     29  H   UNL     1      13.961  17.224 -13.360  1.00  0.00     0.170 HD
BRANCH  28  30
ATOM     30  C   UNL     1      13.025  15.690 -12.380  1.00  0.00     0.153 A 
ATOM     31  C   UNL     1      11.741  15.092 -12.451  1.00  0.00     0.071 A 
ATOM     32  N   UNL     1      13.537  15.557 -11.154  1.00  0.00    -0.158 NA
ATOM     33  C   UNL     1      11.492  14.583 -11.198  1.00  0.00     0.034 A 
ATOM     34  N   UNL     1      12.603  14.887 -10.464  1.00  0.00    -0.281 N 
ATOM     35  C   UNL     1      10.341  13.850 -10.631  1.00  0.00     0.066 C 
ATOM     36  H   UNL     1      12.792  14.672  -9.491  1.00  0.00     0.190 HD
ENDBRANCH  28  30
ENDBRANCH  21  28
BRANCH  27  37
ATOM     37  C   UNL     1      11.362  12.942 -19.498  1.00  0.00     0.140 C 
BRANCH  37  38
ATOM     38  N   UNL     1      11.788  12.430 -20.818  1.00  0.00    -0.293 NA
ATOM     39  C   UNL     1      12.316  13.519 -21.670  1.00  0.00     0.113 C 
ATOM     40  C   UNL     1      10.666  11.740 -21.499  1.00  0.00     0.113 C 
ATOM     41  C   UNL     1      11.300  14.047 -22.695  1.00  0.00     0.175 C 
ATOM     42  C   UNL     1      10.847  11.721 -23.025  1.00  0.00     0.175 C 
ATOM     43  O   UNL     1      10.846  13.035 -23.603  1.00  0.00    -0.379 OA
ENDBRANCH  37  38
ENDBRANCH  27  37
ENDBRANCH  16  18
ENDBRANCH   8  16
TORSDOF 10
ENDMDL
MODEL 7
REMARK minimizedAffinity -5.90303516
REMARK CNNscore 0.100639604
REMARK CNNaffinity 5.35454941
REMARK SMILES C=CCOC(=O)N1[C@@H]2CCC[C@H]1C[C@@H](Nc1nc(Nc3cc(C)[nH]n3)cc3nc(CN4CCOCC4)ccc13)C2
REMARK SMILES IDX 7 1 8 2 9 3 10 4 11 5 12 6 13 7 14 8 40 9 5 10 6 11 4 12
REMARK SMILES IDX 3 13 2 14 1 15 15 16 16 18 17 19 39 20 18 21 38 22 27 23
REMARK SMILES IDX 26 24 37 25 28 26 29 27 19 28 20 30 21 31 25 32 22 33 24 34
REMARK SMILES IDX 23 35 30 37 31 38 32 39 36 40 33 41 35 42 34 43
REMARK H PARENT 15 17 19 29 24 36
ROOT
ATOM      1  N   UNL     1      15.588  22.084 -21.385  1.00  0.00    -0.302 N 
ATOM      2  C   UNL     1      15.770  22.057 -19.936  1.00  0.00     0.091 C 
ATOM      3  C   UNL     1      17.222  22.405 -19.556  1.00  0.00     0.025 C 
ATOM      4  C   UNL     1      18.150  22.541 -20.761  1.00  0.00     0.004 C 
ATOM      5  C   UNL     1      17.942  21.446 -21.803  1.00  0.00     0.025 C 
ATOM      6  C   UNL     1      16.457  21.144 -22.084  1.00  0.00     0.091 C 
ATOM      7  C   UNL     1      16.044  19.715 -21.687  1.00  0.00     0.050 C 
ATOM      8  C   UNL     1      15.971  19.480 -20.161  1.00  0.00     0.084 C 
ATOM      9  C   UNL     1      15.319  20.675 -19.424  1.00  0.00     0.050 C 
ENDROOT
BRANCH   1  10
ATOM     10  C   UNL     1      14.419  22.513 -21.996  1.00  0.00     0.410 C 
ATOM     11  O   UNL     1      13.571  21.757 -22.453  1.00  0.00    -0.224 OA
BRANCH  10  12
ATOM     12  O   UNL     1      14.319  23.869 -22.021  1.00  0.00    -0.445 OA
BRANCH  12  13
ATOM     13  C   UNL     1      14.979  24.534 -23.103  1.00  0.00     0.262 C 
BRANCH  13  14
ATOM     14  C   UNL     1      16.205  25.216 -22.572  1.00  0.00     0.006 C 
ATOM     15  C   UNL     1      16.506  26.507 -22.767  1.00  0.00     0.007 C 
ENDBRANCH  13  14
ENDBRANCH  12  13
ENDBRANCH  10  12
ENDBRANCH   1  10
BRANCH   8  16
ATOM     16  N   UNL     1      17.296  19.206 -19.581  1.00  0.00    -0.367 N 
ATOM     17  H   UNL     1      17.929  19.995 -19.700  1.00  0.00     0.162 HD
BRANCH  16  18
ATOM     18  C   UNL     1      17.341  18.876 -18.205  1.00  0.00     0.138 A 
ATOM     19  N   UNL     1      16.403  18.052 -17.700  1.00  0.00    -0.213 NA
ATOM     20  C   UNL     1      18.367  19.419 -17.404  1.00  0.00     0.043 A 
ATOM     21  C   UNL     1      16.429  17.743 -16.386  1.00  0.00     0.136 A 
ATOM     22  C   UNL     1      19.398  20.260 -17.877  1.00  0.00     0.016 A 
ATOM     23  C   UNL     1      18.379  19.095 -16.040  1.00  0.00     0.078 A 
ATOM     24  C   UNL     1      17.400  18.257 -15.547  1.00  0.00     0.076 A 
ATOM     25  C   UNL     1      20.365  20.746 -17.004  1.00  0.00     0.026 A 
ATOM     26  N   UNL     1      19.314  19.567 -15.192  1.00  0.00    -0.251 NA
ATOM     27  C   UNL     1      20.294  20.377 -15.670  1.00  0.00     0.055 A 
BRANCH  21  28
ATOM     28  N   UNL     1      15.408  16.886 -15.979  1.00  0.00    -0.323 N 
ATOM     29  H   UNL     1      15.072  16.401 -16.801  1.00  0.00     0.170 HD
BRANCH  28  30
ATOM     30  C   UNL     1      14.851  16.627 -14.779  1.00  0.00     0.153 A 
ATOM     31  C   UNL     1      13.623  15.924 -14.674  1.00  0.00     0.071 A 
ATOM     32  N   UNL     1      15.309  16.955 -13.569  1.00  0.00    -0.158 NA
ATOM     33  C   UNL     1      13.352  15.839 -13.328  1.00  0.00     0.034 A 
ATOM     34  N   UNL     1      14.397  16.470 -12.715  1.00  0.00    -0.281 N 
ATOM     35  C   UNL     1      12.235  15.234 -12.573  1.00  0.00     0.066 C 
ATOM     36  H   UNL     1      14.551  16.609 -11.722  1.00  0.00     0.190 HD
ENDBRANCH  28  30
ENDBRANCH  21  28
BRANCH  27  37
ATOM     37  C   UNL     1      21.323  20.885 -14.675  1.00  0.00     0.140 C 
BRANCH  37  38
ATOM     38  N   UNL     1      22.695  20.400 -14.932  1.00  0.00    -0.293 NA
ATOM     39  C   UNL     1      22.702  18.955 -15.252  1.00  0.00     0.113 C 
ATOM     40  C   UNL     1      23.575  20.676 -13.770  1.00  0.00     0.113 C 
ATOM     41  C   UNL     1      23.082  18.063 -14.059  1.00  0.00     0.175 C 
ATOM     42  C   UNL     1      24.776  19.718 -13.721  1.00  0.00     0.175 C 
ATOM     43  O   UNL     1      24.390  18.348 -13.544  1.00  0.00    -0.379 OA
ENDBRANCH  37  38
ENDBRANCH  27  37
ENDBRANCH  16  18
ENDBRANCH   8  16
TORSDOF 10
ENDMDL
MODEL 8
REMARK minimizedAffinity -5.46394253
REMARK CNNscore 0.0769677311
REMARK CNNaffinity 5.534554
REMARK SMILES C=CCOC(=O)N1[C@@H]2CCC[C@H]1C[C@@H](Nc1nc(Nc3cc(C)[nH]n3)cc3nc(CN4CCOCC4)ccc13)C2
REMARK SMILES IDX 7 1 8 2 9 3 10 4 11 5 12 6 13 7 14 8 40 9 5 10 6 11 4 12
REMARK SMILES IDX 3 13 2 14 1 15 15 16 16 18 17 19 39 20 18 21 38 22 27 23
REMARK SMILES IDX 26 24 37 25 28 26 29 27 19 28 20 30 21 31 25 32 22 33 24 34
REMARK SMILES IDX 23 35 30 37 31 38 32 39 36 40 33 41 35 42 34 43
REMARK H PARENT 15 17 19 29 24 36
ROOT
ATOM      1  N   UNL     1       5.850 -13.967 -13.759  1.00  0.00    -0.302 N 
ATOM      2  C   UNL     1       6.638 -13.762 -12.548  1.00  0.00     0.091 C 
ATOM      3  C   UNL     1       7.820 -12.810 -12.811  1.00  0.00     0.025 C 
ATOM      4  C   UNL     1       7.980 -12.432 -14.282  1.00  0.00     0.004 C 
ATOM      5  C   UNL     1       7.813 -13.620 -15.226  1.00  0.00     0.025 C 
ATOM      6  C   UNL     1       6.630 -14.534 -14.854  1.00  0.00     0.091 C 
ATOM      7  C   UNL     1       7.063 -15.956 -14.454  1.00  0.00     0.050 C 
ATOM      8  C   UNL     1       7.768 -16.037 -13.080  1.00  0.00     0.084 C 
ATOM      9  C   UNL     1       7.073 -15.145 -12.023  1.00  0.00     0.050 C 
ENDROOT
BRANCH   1  10
ATOM     10  C   UNL     1       4.472 -14.123 -13.752  1.00  0.00     0.410 C 
ATOM     11  O   UNL     1       3.909 -15.208 -13.822  1.00  0.00    -0.224 OA
BRANCH  10  12
ATOM     12  O   UNL     1       3.819 -12.935 -13.651  1.00  0.00    -0.445 OA
BRANCH  12  13
ATOM     13  C   UNL     1       2.929 -12.793 -12.538  1.00  0.00     0.262 C 
BRANCH  13  14
ATOM     14  C   UNL     1       1.685 -12.096 -13.003  1.00  0.00     0.006 C 
ATOM     15  C   UNL     1       1.445 -10.786 -12.860  1.00  0.00     0.007 C 
ENDBRANCH  13  14
ENDBRANCH  12  13
ENDBRANCH  10  12
ENDBRANCH   1  10
BRANCH   8  16
ATOM     16  N   UNL     1       9.192 -15.678 -13.169  1.00  0.00    -0.367 N 
ATOM     17  H   UNL     1       9.360 -14.722 -12.862  1.00  0.00     0.162 HD
BRANCH  16  18
ATOM     18  C   UNL     1      10.105 -16.484 -12.446  1.00  0.00     0.138 A 
ATOM     19  N   UNL     1      10.414 -16.146 -11.179  1.00  0.00    -0.213 NA
ATOM     20  C   UNL     1      10.664 -17.617 -13.074  1.00  0.00     0.043 A 
ATOM     21  C   UNL     1      11.294 -16.900 -10.487  1.00  0.00     0.136 A 
ATOM     22  C   UNL     1      10.358 -18.044 -14.384  1.00  0.00     0.016 A 
ATOM     23  C   UNL     1      11.582 -18.387 -12.346  1.00  0.00     0.078 A 
ATOM     24  C   UNL     1      11.888 -18.012 -11.054  1.00  0.00     0.076 A 
ATOM     25  C   UNL     1      10.965 -19.177 -14.915  1.00  0.00     0.026 A 
ATOM     26  N   UNL     1      12.174 -19.485 -12.859  1.00  0.00    -0.251 NA
ATOM     27  C   UNL     1      11.866 -19.874 -14.123  1.00  0.00     0.055 A 
BRANCH  21  28
ATOM     28  N   UNL     1      11.537 -16.451  -9.190  1.00  0.00    -0.323 N 
ATOM     29  H   UNL     1      10.639 -16.307  -8.746  1.00  0.00     0.170 HD
BRANCH  28  30
ATOM     30  C   UNL     1      12.669 -16.204  -8.500  1.00  0.00     0.153 A 
ATOM     31  C   UNL     1      13.143 -17.109  -7.516  1.00  0.00     0.071 A 
ATOM     32  N   UNL     1      13.484 -15.153  -8.602  1.00  0.00    -0.158 NA
ATOM     33  C   UNL     1      14.299 -16.553  -7.019  1.00  0.00     0.034 A 
ATOM     34  N   UNL     1      14.455 -15.384  -7.709  1.00  0.00    -0.281 N 
ATOM     35  C   UNL     1      15.254 -17.000  -5.985  1.00  0.00     0.066 C 
ATOM     36  H   UNL     1      15.197 -14.698  -7.620  1.00  0.00     0.190 HD
ENDBRANCH  28  30
ENDBRANCH  21  28
BRANCH  27  37
ATOM     37  C   UNL     1      12.559 -21.114 -14.658  1.00  0.00     0.140 C 
BRANCH  37  38
ATOM     38  N   UNL     1      14.031 -20.992 -14.733  1.00  0.00    -0.293 NA
ATOM     39  C   UNL     1      14.433 -19.956 -15.711  1.00  0.00     0.113 C 
ATOM     40  C   UNL     1      14.648 -22.296 -15.080  1.00  0.00     0.113 C 
ATOM     41  C   UNL     1      14.851 -20.526 -17.076  1.00  0.00     0.175 C 
ATOM     42  C   UNL     1      16.027 -22.120 -15.734  1.00  0.00     0.175 C 
ATOM     43  O   UNL     1      15.966 -21.423 -16.987  1.00  0.00    -0.379 OA
ENDBRANCH  37  38
ENDBRANCH  27  37
ENDBRANCH  16  18
ENDBRANCH   8  16
TORSDOF 10
ENDMDL
MODEL 9
REMARK minimizedAffinity -5.81693935
REMARK CNNscore 0.0707272589
REMARK CNNaffinity 4.59536362
REMARK SMILES C=CCOC(=O)N1[C@@H]2CCC[C@H]1C[C@@H](Nc1nc(Nc3cc(C)[nH]n3)cc3nc(CN4CCOCC4)ccc13)C2
REMARK SMILES IDX 7 1 8 2 9 3 10 4 11 5 12 6 13 7 14 8 40 9 5 10 6 11 4 12
REMARK SMILES IDX 3 13 2 14 1 15 15 16 16 18 17 19 39 20 18 21 38 22 27 23
REMARK SMILES IDX 26 24 37 25 28 26 29 27 19 28 20 30 21 31 25 32 22 33 24 34
REMARK SMILES IDX 23 35 30 37 31 38 32 39 36 40 33 41 35 42 34 43
REMARK H PARENT 15 17 19 29 24 36
ROOT
ATOM      1  N   UNL     1      -6.515   1.835 -12.662  1.00  0.00    -0.302 N 
ATOM      2  C   UNL     1      -6.466   1.266 -14.005  1.00  0.00     0.091 C 
ATOM      3  C   UNL     1      -7.771   1.551 -14.774  1.00  0.00     0.025 C 
ATOM      4  C   UNL     1      -8.849   2.212 -13.917  1.00  0.00     0.004 C 
ATOM      5  C   UNL     1      -8.974   1.590 -12.529  1.00  0.00     0.025 C 
ATOM      6  C   UNL     1      -7.615   1.307 -11.861  1.00  0.00     0.091 C 
ATOM      7  C   UNL     1      -7.359  -0.192 -11.617  1.00  0.00     0.050 C 
ATOM      8  C   UNL     1      -7.080  -1.002 -12.905  1.00  0.00     0.084 C 
ATOM      9  C   UNL     1      -6.149  -0.236 -13.876  1.00  0.00     0.050 C 
ENDROOT
BRANCH   1  10
ATOM     10  C   UNL     1      -5.408   2.376 -12.024  1.00  0.00     0.410 C 
ATOM     11  O   UNL     1      -4.526   1.705 -11.503  1.00  0.00    -0.224 OA
BRANCH  10  12
ATOM     12  O   UNL     1      -5.411   3.735 -12.052  1.00  0.00    -0.445 OA
BRANCH  12  13
ATOM     13  C   UNL     1      -5.189   4.396 -10.801  1.00  0.00     0.262 C 
BRANCH  13  14
ATOM     14  C   UNL     1      -6.508   4.570 -10.109  1.00  0.00     0.006 C 
ATOM     15  C   UNL     1      -6.906   5.693  -9.496  1.00  0.00     0.007 C 
ENDBRANCH  13  14
ENDBRANCH  12  13
ENDBRANCH  10  12
ENDBRANCH   1  10
BRANCH   8  16
ATOM     16  N   UNL     1      -8.321  -1.375 -13.602  1.00  0.00    -0.367 N 
ATOM     17  H   UNL     1      -8.638  -0.637 -14.228  1.00  0.00     0.162 HD
BRANCH  16  18
ATOM     18  C   UNL     1      -8.292  -2.558 -14.379  1.00  0.00     0.138 A 
ATOM     19  N   UNL     1      -7.149  -3.268 -14.447  1.00  0.00    -0.213 NA
ATOM     20  C   UNL     1      -9.461  -2.960 -15.059  1.00  0.00     0.043 A 
ATOM     21  C   UNL     1      -7.107  -4.389 -15.197  1.00  0.00     0.136 A 
ATOM     22  C   UNL     1     -10.698  -2.282 -15.003  1.00  0.00     0.016 A 
ATOM     23  C   UNL     1      -9.402  -4.123 -15.840  1.00  0.00     0.078 A 
ATOM     24  C   UNL     1      -8.215  -4.824 -15.900  1.00  0.00     0.076 A 
ATOM     25  C   UNL     1     -11.794  -2.758 -15.713  1.00  0.00     0.026 A 
ATOM     26  N   UNL     1     -10.463  -4.586 -16.530  1.00  0.00    -0.251 NA
ATOM     27  C   UNL     1     -11.641  -3.914 -16.463  1.00  0.00     0.055 A 
BRANCH  21  28
ATOM     28  N   UNL     1      -5.872  -5.036 -15.192  1.00  0.00    -0.323 N 
ATOM     29  H   UNL     1      -5.884  -5.708 -14.436  1.00  0.00     0.170 HD
BRANCH  28  30
ATOM     30  C   UNL     1      -4.772  -4.918 -15.962  1.00  0.00     0.153 A 
ATOM     31  C   UNL     1      -4.382  -3.666 -16.503  1.00  0.00     0.071 A 
ATOM     32  N   UNL     1      -3.917  -5.875 -16.330  1.00  0.00    -0.158 NA
ATOM     33  C   UNL     1      -3.237  -3.908 -17.226  1.00  0.00     0.034 A 
ATOM     34  N   UNL     1      -3.004  -5.247 -17.084  1.00  0.00    -0.281 N 
ATOM     35  C   UNL     1      -2.354  -3.027 -18.018  1.00  0.00     0.066 C 
ATOM     36  H   UNL     1      -2.245  -5.797 -17.472  1.00  0.00     0.190 HD
ENDBRANCH  28  30
ENDBRANCH  21  28
BRANCH  27  37
ATOM     37  C   UNL     1     -12.807  -4.473 -17.261  1.00  0.00     0.140 C 
BRANCH  37  38
ATOM     38  N   UNL     1     -12.677  -4.288 -18.722  1.00  0.00    -0.293 NA
ATOM     39  C   UNL     1     -13.655  -3.298 -19.225  1.00  0.00     0.113 C 
ATOM     40  C   UNL     1     -12.839  -5.581 -19.430  1.00  0.00     0.113 C 
ATOM     41  C   UNL     1     -14.902  -3.933 -19.861  1.00  0.00     0.175 C 
ATOM     42  C   UNL     1     -13.297  -5.383 -20.884  1.00  0.00     0.175 C 
ATOM     43  O   UNL     1     -14.591  -4.771 -20.983  1.00  0.00    -0.379 OA
ENDBRANCH  37  38
ENDBRANCH  27  37
ENDBRANCH  16  18
ENDBRANCH   8  16
TORSDOF 10
ENDMDL
