MODEL 1
REMARK minimizedAffinity -8.75466156
REMARK CNNscore 0.880484879
REMARK CNNaffinity 8.14215183
REMARK SMILES C=CC(=O)N1[C@@H]2CC[C@H]1C[C@H](Oc1cc(-c3cc(F)c(O)cc3CC)cn3cncc13)C2
REMARK SMILES IDX 13 1 14 2 15 3 26 4 27 5 28 6 29 7 30 8 31 9 12 10 11 11
REMARK SMILES IDX 5 12 6 13 9 14 7 15 32 16 8 17 10 18 3 19 4 20 2 21 1 22
REMARK SMILES IDX 16 23 17 24 23 25 18 26 22 27 20 28 19 29 24 30 25 31 21 32
REMARK H PARENT 21 33
ROOT
ATOM      1  C   UNL     1      11.776  14.633 -14.244  1.00  0.00     0.146 A 
ATOM      2  C   UNL     1      12.825  15.287 -14.793  1.00  0.00     0.059 A 
ATOM      3  C   UNL     1      13.842  15.962 -13.978  1.00  0.00     0.002 A 
ATOM      4  C   UNL     1      13.718  15.913 -12.637  1.00  0.00     0.101 A 
ATOM      5  N   UNL     1      12.636  15.241 -12.079  1.00  0.00    -0.302 N 
ATOM      6  C   UNL     1      12.296  15.065 -10.760  1.00  0.00     0.204 A 
ATOM      7  N   UNL     1      11.189  14.366 -10.621  1.00  0.00    -0.244 NA
ATOM      8  C   UNL     1      10.789  14.072 -11.902  1.00  0.00     0.143 A 
ATOM      9  C   UNL     1      11.662  14.602 -12.826  1.00  0.00     0.107 A 
ENDROOT
BRANCH   1  10
ATOM     10  O   UNL     1      10.762  13.969 -14.883  1.00  0.00    -0.488 OA
BRANCH  10  11
ATOM     11  C   UNL     1      10.872  13.655 -16.275  1.00  0.00     0.177 C 
ATOM     12  N   UNL     1       9.049  13.017 -18.428  1.00  0.00    -0.333 N 
ATOM     13  C   UNL     1       9.767  14.282 -18.494  1.00  0.00     0.089 C 
ATOM     14  C   UNL     1      10.037  12.021 -18.052  1.00  0.00     0.089 C 
ATOM     15  C   UNL     1      11.048  13.886 -19.242  1.00  0.00     0.027 C 
ATOM     16  C   UNL     1      10.057  14.718 -17.048  1.00  0.00     0.070 C 
ATOM     17  C   UNL     1      11.226  12.385 -18.949  1.00  0.00     0.027 C 
ATOM     18  C   UNL     1      10.359  12.227 -16.560  1.00  0.00     0.070 C 
BRANCH  12  19
ATOM     19  C   UNL     1       7.708  12.786 -18.217  1.00  0.00     0.246 C 
ATOM     20  O   UNL     1       7.164  11.732 -18.537  1.00  0.00    -0.270 OA
BRANCH  19  21
ATOM     21  C   UNL     1       6.927  13.884 -17.585  1.00  0.00     0.063 C 
ATOM     22  C   UNL     1       5.598  13.945 -17.739  1.00  0.00     0.014 C 
ENDBRANCH  19  21
ENDBRANCH  12  19
ENDBRANCH  10  11
ENDBRANCH   1  10
BRANCH   3  23
ATOM     23  C   UNL     1      14.991  16.674 -14.564  1.00  0.00    -0.010 A 
ATOM     24  C   UNL     1      15.793  17.438 -13.701  1.00  0.00     0.052 A 
ATOM     25  C   UNL     1      15.319  16.591 -15.938  1.00  0.00    -0.036 A 
ATOM     26  C   UNL     1      16.897  18.116 -14.200  1.00  0.00     0.165 A 
ATOM     27  C   UNL     1      16.442  17.294 -16.417  1.00  0.00     0.053 A 
ATOM     28  C   UNL     1      17.220  18.047 -15.548  1.00  0.00     0.151 A 
ATOM     29  F   UNL     1      17.661  18.845 -13.374  1.00  0.00    -0.203 F 
BRANCH  25  30
ATOM     30  C   UNL     1      14.499  15.795 -16.931  1.00  0.00     0.033 C 
ATOM     31  C   UNL     1      15.371  14.922 -17.821  1.00  0.00     0.009 C 
ENDBRANCH  25  30
BRANCH  28  32
ATOM     32  O   UNL     1      18.304  18.709 -16.047  1.00  0.00    -0.505 OA
ATOM     33  H   UNL     1      18.722  19.177 -15.300  1.00  0.00     0.293 HD
ENDBRANCH  28  32
ENDBRANCH   3  23
TORSDOF 7
ENDMDL
MODEL 2
REMARK minimizedAffinity -8.56525421
REMARK CNNscore 0.790765524
REMARK CNNaffinity 7.85891533
REMARK SMILES C=CC(=O)N1[C@@H]2CC[C@H]1C[C@H](Oc1cc(-c3cc(F)c(O)cc3CC)cn3cncc13)C2
REMARK SMILES IDX 13 1 14 2 15 3 26 4 27 5 28 6 29 7 30 8 31 9 12 10 11 11
REMARK SMILES IDX 5 12 6 13 9 14 7 15 32 16 8 17 10 18 3 19 4 20 2 21 1 22
REMARK SMILES IDX 16 23 17 24 23 25 18 26 22 27 20 28 19 29 24 30 25 31 21 32
REMARK H PARENT 21 33
ROOT
ATOM      1  C   UNL     1      14.041  16.166 -14.599  1.00  0.00     0.146 A 
ATOM      2  C   UNL     1      13.451  15.564 -15.656  1.00  0.00     0.059 A 
ATOM      3  C   UNL     1      12.332  14.627 -15.500  1.00  0.00     0.002 A 
ATOM      4  C   UNL     1      11.882  14.374 -14.255  1.00  0.00     0.101 A 
ATOM      5  N   UNL     1      12.495  14.996 -13.172  1.00  0.00    -0.302 N 
ATOM      6  C   UNL     1      12.222  14.892 -11.830  1.00  0.00     0.204 A 
ATOM      7  N   UNL     1      13.025  15.638 -11.101  1.00  0.00    -0.244 NA
ATOM      8  C   UNL     1      13.855  16.258 -12.004  1.00  0.00     0.143 A 
ATOM      9  C   UNL     1      13.554  15.878 -13.293  1.00  0.00     0.107 A 
ENDROOT
BRANCH   1  10
ATOM     10  O   UNL     1      15.086  17.052 -14.602  1.00  0.00    -0.488 OA
BRANCH  10  11
ATOM     11  C   UNL     1      16.144  16.913 -15.556  1.00  0.00     0.177 C 
ATOM     12  N   UNL     1      17.106  18.392 -17.848  1.00  0.00    -0.333 N 
ATOM     13  C   UNL     1      17.952  18.342 -16.664  1.00  0.00     0.089 C 
ATOM     14  C   UNL     1      16.639  17.033 -18.060  1.00  0.00     0.089 C 
ATOM     15  C   UNL     1      18.789  17.081 -16.922  1.00  0.00     0.027 C 
ATOM     16  C   UNL     1      17.026  18.179 -15.448  1.00  0.00     0.070 C 
ATOM     17  C   UNL     1      17.918  16.213 -17.849  1.00  0.00     0.027 C 
ATOM     18  C   UNL     1      15.581  16.733 -16.983  1.00  0.00     0.070 C 
BRANCH  12  19
ATOM     19  C   UNL     1      16.417  19.459 -18.382  1.00  0.00     0.246 C 
ATOM     20  O   UNL     1      16.086  20.431 -17.707  1.00  0.00    -0.270 OA
BRANCH  19  21
ATOM     21  C   UNL     1      16.073  19.383 -19.827  1.00  0.00     0.063 C 
ATOM     22  C   UNL     1      17.028  19.516 -20.758  1.00  0.00     0.014 C 
ENDBRANCH  19  21
ENDBRANCH  12  19
ENDBRANCH  10  11
ENDBRANCH   1  10
BRANCH   3  23
ATOM     23  C   UNL     1      11.678  13.967 -16.644  1.00  0.00    -0.010 A 
ATOM     24  C   UNL     1      11.735  14.614 -17.889  1.00  0.00     0.052 A 
ATOM     25  C   UNL     1      11.029  12.715 -16.532  1.00  0.00    -0.036 A 
ATOM     26  C   UNL     1      11.148  14.027 -19.002  1.00  0.00     0.165 A 
ATOM     27  C   UNL     1      10.437  12.146 -17.677  1.00  0.00     0.053 A 
ATOM     28  C   UNL     1      10.503  12.803 -18.899  1.00  0.00     0.151 A 
ATOM     29  F   UNL     1      11.204  14.647 -20.190  1.00  0.00    -0.203 F 
BRANCH  25  30
ATOM     30  C   UNL     1      10.918  11.962 -15.224  1.00  0.00     0.033 C 
ATOM     31  C   UNL     1      11.654  10.630 -15.268  1.00  0.00     0.009 C 
ENDBRANCH  25  30
BRANCH  28  32
ATOM     32  O   UNL     1       9.923  12.219 -19.988  1.00  0.00    -0.505 OA
ATOM     33  H   UNL     1      10.068  12.818 -20.744  1.00  0.00     0.293 HD
ENDBRANCH  28  32
ENDBRANCH   3  23
TORSDOF 7
ENDMDL
MODEL 3
REMARK minimizedAffinity -8.57561016
REMARK CNNscore 0.658317387
REMARK CNNaffinity 7.70711946
REMARK SMILES C=CC(=O)N1[C@@H]2CC[C@H]1C[C@H](Oc1cc(-c3cc(F)c(O)cc3CC)cn3cncc13)C2
REMARK SMILES IDX 13 1 14 2 15 3 26 4 27 5 28 6 29 7 30 8 31 9 12 10 11 11
REMARK SMILES IDX 5 12 6 13 9 14 7 15 32 16 8 17 10 18 3 19 4 20 2 21 1 22
REMARK SMILES IDX 16 23 17 24 23 25 18 26 22 27 20 28 19 29 24 30 25 31 21 32
REMARK H PARENT 21 33
ROOT
ATOM      1  C   UNL     1      14.533  15.935 -15.315  1.00  0.00     0.146 A 
ATOM      2  C   UNL     1      13.802  15.299 -16.258  1.00  0.00     0.059 A 
ATOM      3  C   UNL     1      12.533  14.630 -15.948  1.00  0.00     0.002 A 
ATOM      4  C   UNL     1      12.089  14.667 -14.676  1.00  0.00     0.101 A 
ATOM      5  N   UNL     1      12.847  15.321 -13.711  1.00  0.00    -0.302 N 
ATOM      6  C   UNL     1      12.609  15.483 -12.368  1.00  0.00     0.204 A 
ATOM      7  N   UNL     1      13.563  16.166 -11.772  1.00  0.00    -0.244 NA
ATOM      8  C   UNL     1      14.462  16.466 -12.768  1.00  0.00     0.143 A 
ATOM      9  C   UNL     1      14.048  15.954 -13.978  1.00  0.00     0.107 A 
ENDROOT
BRANCH   1  10
ATOM     10  O   UNL     1      15.725  16.592 -15.467  1.00  0.00    -0.488 OA
BRANCH  10  11
ATOM     11  C   UNL     1      16.002  17.314 -16.672  1.00  0.00     0.177 C 
ATOM     12  N   UNL     1      18.333  17.877 -18.288  1.00  0.00    -0.333 N 
ATOM     13  C   UNL     1      17.305  17.015 -18.852  1.00  0.00     0.089 C 
ATOM     14  C   UNL     1      17.629  18.998 -17.693  1.00  0.00     0.089 C 
ATOM     15  C   UNL     1      16.380  18.028 -19.541  1.00  0.00     0.027 C 
ATOM     16  C   UNL     1      16.608  16.307 -17.678  1.00  0.00     0.070 C 
ATOM     17  C   UNL     1      16.596  19.345 -18.772  1.00  0.00     0.027 C 
ATOM     18  C   UNL     1      16.960  18.494 -16.401  1.00  0.00     0.070 C 
BRANCH  12  19
ATOM     19  C   UNL     1      19.610  17.558 -17.880  1.00  0.00     0.246 C 
ATOM     20  O   UNL     1      20.513  17.312 -18.677  1.00  0.00    -0.270 OA
BRANCH  19  21
ATOM     21  C   UNL     1      19.856  17.511 -16.414  1.00  0.00     0.063 C 
ATOM     22  C   UNL     1      20.833  18.248 -15.867  1.00  0.00     0.014 C 
ENDBRANCH  19  21
ENDBRANCH  12  19
ENDBRANCH  10  11
ENDBRANCH   1  10
BRANCH   3  23
ATOM     23  C   UNL     1      11.725  13.937 -16.967  1.00  0.00    -0.010 A 
ATOM     24  C   UNL     1      11.696  14.486 -18.259  1.00  0.00     0.052 A 
ATOM     25  C   UNL     1      11.013  12.746 -16.694  1.00  0.00    -0.036 A 
ATOM     26  C   UNL     1      10.963  13.863 -19.260  1.00  0.00     0.165 A 
ATOM     27  C   UNL     1      10.273  12.138 -17.727  1.00  0.00     0.053 A 
ATOM     28  C   UNL     1      10.255  12.699 -18.998  1.00  0.00     0.151 A 
ATOM     29  F   UNL     1      10.936  14.389 -20.493  1.00  0.00    -0.203 F 
BRANCH  25  30
ATOM     30  C   UNL     1      10.988  12.099 -15.325  1.00  0.00     0.033 C 
ATOM     31  C   UNL     1      11.604  10.708 -15.340  1.00  0.00     0.009 C 
ENDBRANCH  25  30
BRANCH  28  32
ATOM     32  O   UNL     1       9.531  12.079 -19.976  1.00  0.00    -0.505 OA
ATOM     33  H   UNL     1       9.636  12.610 -20.788  1.00  0.00     0.293 HD
ENDBRANCH  28  32
ENDBRANCH   3  23
TORSDOF 7
ENDMDL
MODEL 4
REMARK minimizedAffinity -9.02935982
REMARK CNNscore 0.574688971
REMARK CNNaffinity 7.53005219
REMARK SMILES C=CC(=O)N1[C@@H]2CC[C@H]1C[C@H](Oc1cc(-c3cc(F)c(O)cc3CC)cn3cncc13)C2
REMARK SMILES IDX 13 1 14 2 15 3 26 4 27 5 28 6 29 7 30 8 31 9 12 10 11 11
REMARK SMILES IDX 5 12 6 13 9 14 7 15 32 16 8 17 10 18 3 19 4 20 2 21 1 22
REMARK SMILES IDX 16 23 17 24 23 25 18 26 22 27 20 28 19 29 24 30 25 31 21 32
REMARK H PARENT 21 33
ROOT
ATOM      1  C   UNL     1      14.071  16.081 -15.032  1.00  0.00     0.146 A 
ATOM      2  C   UNL     1      13.287  15.509 -15.973  1.00  0.00     0.059 A 
ATOM      3  C   UNL     1      12.086  14.738 -15.631  1.00  0.00     0.002 A 
ATOM      4  C   UNL     1      11.761  14.612 -14.330  1.00  0.00     0.101 A 
ATOM      5  N   UNL     1      12.572  15.201 -13.366  1.00  0.00    -0.302 N 
ATOM      6  C   UNL     1      12.451  15.204 -11.998  1.00  0.00     0.204 A 
ATOM      7  N   UNL     1      13.423  15.874 -11.415  1.00  0.00    -0.244 NA
ATOM      8  C   UNL     1      14.210  16.331 -12.445  1.00  0.00     0.143 A 
ATOM      9  C   UNL     1      13.711  15.928 -13.664  1.00  0.00     0.107 A 
ENDROOT
BRANCH   1  10
ATOM     10  O   UNL     1      15.211  16.819 -15.212  1.00  0.00    -0.488 OA
BRANCH  10  11
ATOM     11  C   UNL     1      15.625  17.195 -16.529  1.00  0.00     0.177 C 
ATOM     12  N   UNL     1      18.128  17.372 -17.968  1.00  0.00    -0.333 N 
ATOM     13  C   UNL     1      17.171  16.358 -18.386  1.00  0.00     0.089 C 
ATOM     14  C   UNL     1      17.359  18.591 -17.783  1.00  0.00     0.089 C 
ATOM     15  C   UNL     1      16.333  17.118 -19.424  1.00  0.00     0.027 C 
ATOM     16  C   UNL     1      16.343  15.973 -17.149  1.00  0.00     0.070 C 
ATOM     17  C   UNL     1      16.458  18.599 -19.024  1.00  0.00     0.027 C 
ATOM     18  C   UNL     1      16.546  18.434 -16.485  1.00  0.00     0.070 C 
BRANCH  12  19
ATOM     19  C   UNL     1      19.349  17.216 -17.349  1.00  0.00     0.246 C 
ATOM     20  O   UNL     1      19.481  17.287 -16.130  1.00  0.00    -0.270 OA
BRANCH  19  21
ATOM     21  C   UNL     1      20.522  16.963 -18.229  1.00  0.00     0.063 C 
ATOM     22  C   UNL     1      21.470  16.091 -17.859  1.00  0.00     0.014 C 
ENDBRANCH  19  21
ENDBRANCH  12  19
ENDBRANCH  10  11
ENDBRANCH   1  10
BRANCH   3  23
ATOM     23  C   UNL     1      11.222  14.112 -16.648  1.00  0.00    -0.010 A 
ATOM     24  C   UNL     1       9.845  14.048 -16.382  1.00  0.00     0.052 A 
ATOM     25  C   UNL     1      11.726  13.609 -17.870  1.00  0.00    -0.036 A 
ATOM     26  C   UNL     1       8.985  13.482 -17.314  1.00  0.00     0.165 A 
ATOM     27  C   UNL     1      10.831  13.036 -18.795  1.00  0.00     0.053 A 
ATOM     28  C   UNL     1       9.472  12.978 -18.512  1.00  0.00     0.151 A 
ATOM     29  F   UNL     1       7.671  13.421 -17.057  1.00  0.00    -0.203 F 
BRANCH  25  30
ATOM     30  C   UNL     1      13.197  13.635 -18.225  1.00  0.00     0.033 C 
ATOM     31  C   UNL     1      13.472  14.485 -19.457  1.00  0.00     0.009 C 
ENDBRANCH  25  30
BRANCH  28  32
ATOM     32  O   UNL     1       8.634  12.421 -19.434  1.00  0.00    -0.505 OA
ATOM     33  H   UNL     1       7.732  12.469 -19.065  1.00  0.00     0.293 HD
ENDBRANCH  28  32
ENDBRANCH   3  23
TORSDOF 7
ENDMDL
MODEL 5
REMARK minimizedAffinity -9.24564934
REMARK CNNscore 0.561659575
REMARK CNNaffinity 7.79979467
REMARK SMILES C=CC(=O)N1[C@@H]2CC[C@H]1C[C@H](Oc1cc(-c3cc(F)c(O)cc3CC)cn3cncc13)C2
REMARK SMILES IDX 13 1 14 2 15 3 26 4 27 5 28 6 29 7 30 8 31 9 12 10 11 11
REMARK SMILES IDX 5 12 6 13 9 14 7 15 32 16 8 17 10 18 3 19 4 20 2 21 1 22
REMARK SMILES IDX 16 23 17 24 23 25 18 26 22 27 20 28 19 29 24 30 25 31 21 32
REMARK H PARENT 21 33
ROOT
ATOM      1  C   UNL     1      11.555  13.721 -14.323  1.00  0.00     0.146 A 
ATOM      2  C   UNL     1      12.602  14.399 -14.844  1.00  0.00     0.059 A 
ATOM      3  C   UNL     1      13.332  15.421 -14.083  1.00  0.00     0.002 A 
ATOM      4  C   UNL     1      12.937  15.675 -12.820  1.00  0.00     0.101 A 
ATOM      5  N   UNL     1      11.858  14.976 -12.291  1.00  0.00    -0.302 N 
ATOM      6  C   UNL     1      11.277  15.064 -11.050  1.00  0.00     0.204 A 
ATOM      7  N   UNL     1      10.264  14.235 -10.915  1.00  0.00    -0.244 NA
ATOM      8  C   UNL     1      10.182  13.573 -12.117  1.00  0.00     0.143 A 
ATOM      9  C   UNL     1      11.152  14.012 -12.989  1.00  0.00     0.107 A 
ENDROOT
BRANCH   1  10
ATOM     10  O   UNL     1      10.791  12.753 -14.919  1.00  0.00    -0.488 OA
BRANCH  10  11
ATOM     11  C   UNL     1       9.804  13.111 -15.892  1.00  0.00     0.177 C 
ATOM     12  N   UNL     1       9.551  12.964 -18.769  1.00  0.00    -0.333 N 
ATOM     13  C   UNL     1       8.680  12.121 -17.964  1.00  0.00     0.089 C 
ATOM     14  C   UNL     1       9.518  14.276 -18.147  1.00  0.00     0.089 C 
ATOM     15  C   UNL     1       7.467  13.035 -17.740  1.00  0.00     0.027 C 
ATOM     16  C   UNL     1       9.422  11.819 -16.652  1.00  0.00     0.070 C 
ATOM     17  C   UNL     1       8.023  14.465 -17.862  1.00  0.00     0.027 C 
ATOM     18  C   UNL     1      10.343  14.196 -16.850  1.00  0.00     0.070 C 
BRANCH  12  19
ATOM     19  C   UNL     1      10.600  12.605 -19.587  1.00  0.00     0.246 C 
ATOM     20  O   UNL     1      11.620  13.283 -19.684  1.00  0.00    -0.270 OA
BRANCH  19  21
ATOM     21  C   UNL     1      10.445  11.347 -20.367  1.00  0.00     0.063 C 
ATOM     22  C   UNL     1       9.313  11.104 -21.042  1.00  0.00     0.014 C 
ENDBRANCH  19  21
ENDBRANCH  12  19
ENDBRANCH  10  11
ENDBRANCH   1  10
BRANCH   3  23
ATOM     23  C   UNL     1      14.477  16.164 -14.638  1.00  0.00    -0.010 A 
ATOM     24  C   UNL     1      15.230  16.953 -13.755  1.00  0.00     0.052 A 
ATOM     25  C   UNL     1      14.847  16.086 -16.001  1.00  0.00    -0.036 A 
ATOM     26  C   UNL     1      16.329  17.662 -14.224  1.00  0.00     0.165 A 
ATOM     27  C   UNL     1      15.963  16.819 -16.451  1.00  0.00     0.053 A 
ATOM     28  C   UNL     1      16.693  17.597 -15.562  1.00  0.00     0.151 A 
ATOM     29  F   UNL     1      17.047  18.415 -13.380  1.00  0.00    -0.203 F 
BRANCH  25  30
ATOM     30  C   UNL     1      14.079  15.264 -17.015  1.00  0.00     0.033 C 
ATOM     31  C   UNL     1      14.906  14.977 -18.260  1.00  0.00     0.009 C 
ENDBRANCH  25  30
BRANCH  28  32
ATOM     32  O   UNL     1      17.772  18.289 -16.032  1.00  0.00    -0.505 OA
ATOM     33  H   UNL     1      18.154  18.771 -15.274  1.00  0.00     0.293 HD
ENDBRANCH  28  32
ENDBRANCH   3  23
TORSDOF 7
ENDMDL
MODEL 6
REMARK minimizedAffinity -7.71257734
REMARK CNNscore 0.402781367
REMARK CNNaffinity 5.92696047
REMARK SMILES C=CC(=O)N1[C@@H]2CC[C@H]1C[C@H](Oc1cc(-c3cc(F)c(O)cc3CC)cn3cncc13)C2
REMARK SMILES IDX 13 1 14 2 15 3 26 4 27 5 28 6 29 7 30 8 31 9 12 10 11 11
REMARK SMILES IDX 5 12 6 13 9 14 7 15 32 16 8 17 10 18 3 19 4 20 2 21 1 22
REMARK SMILES IDX 16 23 17 24 23 25 18 26 22 27 20 28 19 29 24 30 25 31 21 32
REMARK H PARENT 21 33
ROOT
ATOM      1  C   UNL     1       4.048 -12.641 -11.470  1.00  0.00     0.146 A 
ATOM      2  C   UNL     1       3.015 -12.290 -10.671  1.00  0.00     0.059 A 
ATOM      3  C   UNL     1       1.782 -11.694 -11.199  1.00  0.00     0.002 A 
ATOM      4  C   UNL     1       1.688 -11.503 -12.530  1.00  0.00     0.101 A 
ATOM      5  N   UNL     1       2.754 -11.864 -13.346  1.00  0.00    -0.302 N 
ATOM      6  C   UNL     1       2.892 -11.761 -14.708  1.00  0.00     0.204 A 
ATOM      7  N   UNL     1       4.057 -12.210 -15.125  1.00  0.00    -0.244 NA
ATOM      8  C   UNL     1       4.707 -12.627 -13.988  1.00  0.00     0.143 A 
ATOM      9  C   UNL     1       3.928 -12.423 -12.871  1.00  0.00     0.107 A 
ENDROOT
BRANCH   1  10
ATOM     10  O   UNL     1       5.246 -13.199 -11.111  1.00  0.00    -0.488 OA
BRANCH  10  11
ATOM     11  C   UNL     1       5.906 -12.780  -9.911  1.00  0.00     0.177 C 
ATOM     12  N   UNL     1       7.854 -10.770  -9.185  1.00  0.00    -0.333 N 
ATOM     13  C   UNL     1       6.497 -10.618  -8.681  1.00  0.00     0.089 C 
ATOM     14  C   UNL     1       8.201 -12.164  -8.975  1.00  0.00     0.089 C 
ATOM     15  C   UNL     1       6.558 -11.391  -7.356  1.00  0.00     0.027 C 
ATOM     16  C   UNL     1       5.555 -11.289  -9.695  1.00  0.00     0.070 C 
ATOM     17  C   UNL     1       7.690 -12.416  -7.551  1.00  0.00     0.027 C 
ATOM     18  C   UNL     1       7.431 -12.997 -10.016  1.00  0.00     0.070 C 
BRANCH  12  19
ATOM     19  C   UNL     1       8.524 -10.017 -10.124  1.00  0.00     0.246 C 
ATOM     20  O   UNL     1       8.911 -10.489 -11.190  1.00  0.00    -0.270 OA
BRANCH  19  21
ATOM     21  C   UNL     1       8.773  -8.589  -9.789  1.00  0.00     0.063 C 
ATOM     22  C   UNL     1       7.837  -7.662 -10.034  1.00  0.00     0.014 C 
ENDBRANCH  19  21
ENDBRANCH  12  19
ENDBRANCH  10  11
ENDBRANCH   1  10
BRANCH   3  23
ATOM     23  C   UNL     1       0.649 -11.311 -10.340  1.00  0.00    -0.010 A 
ATOM     24  C   UNL     1       0.264  -9.960 -10.331  1.00  0.00     0.052 A 
ATOM     25  C   UNL     1      -0.066 -12.249  -9.558  1.00  0.00    -0.036 A 
ATOM     26  C   UNL     1      -0.808  -9.550  -9.550  1.00  0.00     0.165 A 
ATOM     27  C   UNL     1      -1.146 -11.803  -8.771  1.00  0.00     0.053 A 
ATOM     28  C   UNL     1      -1.508 -10.462  -8.774  1.00  0.00     0.151 A 
ATOM     29  F   UNL     1      -1.173  -8.260  -9.543  1.00  0.00    -0.203 F 
BRANCH  25  30
ATOM     30  C   UNL     1       0.293 -13.719  -9.508  1.00  0.00     0.033 C 
ATOM     31  C   UNL     1      -0.259 -14.399  -8.264  1.00  0.00     0.009 C 
ENDBRANCH  25  30
BRANCH  28  32
ATOM     32  O   UNL     1      -2.564 -10.068  -8.004  1.00  0.00    -0.505 OA
ATOM     33  H   UNL     1      -2.667  -9.107  -8.133  1.00  0.00     0.293 HD
ENDBRANCH  28  32
ENDBRANCH   3  23
TORSDOF 7
ENDMDL
MODEL 7
REMARK minimizedAffinity -7.54879427
REMARK CNNscore 0.270783722
REMARK CNNaffinity 5.86799049
REMARK SMILES C=CC(=O)N1[C@@H]2CC[C@H]1C[C@H](Oc1cc(-c3cc(F)c(O)cc3CC)cn3cncc13)C2
REMARK SMILES IDX 13 1 14 2 15 3 26 4 27 5 28 6 29 7 30 8 31 9 12 10 11 11
REMARK SMILES IDX 5 12 6 13 9 14 7 15 32 16 8 17 10 18 3 19 4 20 2 21 1 22
REMARK SMILES IDX 16 23 17 24 23 25 18 26 22 27 20 28 19 29 24 30 25 31 21 32
REMARK H PARENT 21 33
ROOT
ATOM      1  C   UNL     1      16.700  17.235 -16.948  1.00  0.00     0.146 A 
ATOM      2  C   UNL     1      15.667  16.649 -16.302  1.00  0.00     0.059 A 
ATOM      3  C   UNL     1      15.421  16.853 -14.869  1.00  0.00     0.002 A 
ATOM      4  C   UNL     1      16.257  17.662 -14.189  1.00  0.00     0.101 A 
ATOM      5  N   UNL     1      17.318  18.260 -14.859  1.00  0.00    -0.302 N 
ATOM      6  C   UNL     1      18.293  19.104 -14.386  1.00  0.00     0.204 A 
ATOM      7  N   UNL     1      19.137  19.466 -15.328  1.00  0.00    -0.244 NA
ATOM      8  C   UNL     1      18.696  18.835 -16.466  1.00  0.00     0.143 A 
ATOM      9  C   UNL     1      17.574  18.079 -16.207  1.00  0.00     0.107 A 
ENDROOT
BRANCH   1  10
ATOM     10  O   UNL     1      17.043  17.128 -18.270  1.00  0.00    -0.488 OA
BRANCH  10  11
ATOM     11  C   UNL     1      16.539  18.070 -19.223  1.00  0.00     0.177 C 
ATOM     12  N   UNL     1      17.247  20.726 -20.121  1.00  0.00    -0.333 N 
ATOM     13  C   UNL     1      17.410  19.624 -21.057  1.00  0.00     0.089 C 
ATOM     14  C   UNL     1      15.943  20.538 -19.509  1.00  0.00     0.089 C 
ATOM     15  C   UNL     1      16.037  19.581 -21.743  1.00  0.00     0.027 C 
ATOM     16  C   UNL     1      17.678  18.357 -20.229  1.00  0.00     0.070 C 
ATOM     17  C   UNL     1      15.064  20.188 -20.716  1.00  0.00     0.027 C 
ATOM     18  C   UNL     1      16.059  19.360 -18.523  1.00  0.00     0.070 C 
BRANCH  12  19
ATOM     19  C   UNL     1      18.209  21.486 -19.494  1.00  0.00     0.246 C 
ATOM     20  O   UNL     1      17.959  22.188 -18.516  1.00  0.00    -0.270 OA
BRANCH  19  21
ATOM     21  C   UNL     1      19.585  21.431 -20.059  1.00  0.00     0.063 C 
ATOM     22  C   UNL     1      20.611  21.018 -19.304  1.00  0.00     0.014 C 
ENDBRANCH  19  21
ENDBRANCH  12  19
ENDBRANCH  10  11
ENDBRANCH   1  10
BRANCH   3  23
ATOM     23  C   UNL     1      14.296  16.223 -14.155  1.00  0.00    -0.010 A 
ATOM     24  C   UNL     1      14.198  16.445 -12.772  1.00  0.00     0.052 A 
ATOM     25  C   UNL     1      13.319  15.439 -14.812  1.00  0.00    -0.036 A 
ATOM     26  C   UNL     1      13.148  15.887 -12.054  1.00  0.00     0.165 A 
ATOM     27  C   UNL     1      12.268  14.881 -14.057  1.00  0.00     0.053 A 
ATOM     28  C   UNL     1      12.190  15.110 -12.690  1.00  0.00     0.151 A 
ATOM     29  F   UNL     1      13.056  16.099 -10.733  1.00  0.00    -0.203 F 
BRANCH  25  30
ATOM     30  C   UNL     1      13.363  15.148 -16.297  1.00  0.00     0.033 C 
ATOM     31  C   UNL     1      13.515  13.661 -16.583  1.00  0.00     0.009 C 
ENDBRANCH  25  30
BRANCH  28  32
ATOM     32  O   UNL     1      11.155  14.558 -11.992  1.00  0.00    -0.505 OA
ATOM     33  H   UNL     1      11.266  14.823 -11.060  1.00  0.00     0.293 HD
ENDBRANCH  28  32
ENDBRANCH   3  23
TORSDOF 7
ENDMDL
MODEL 8
REMARK minimizedAffinity -8.47083378
REMARK CNNscore 0.264073998
REMARK CNNaffinity 6.28756762
REMARK SMILES C=CC(=O)N1[C@@H]2CC[C@H]1C[C@H](Oc1cc(-c3cc(F)c(O)cc3CC)cn3cncc13)C2
REMARK SMILES IDX 13 1 14 2 15 3 26 4 27 5 28 6 29 7 30 8 31 9 12 10 11 11
REMARK SMILES IDX 5 12 6 13 9 14 7 15 32 16 8 17 10 18 3 19 4 20 2 21 1 22
REMARK SMILES IDX 16 23 17 24 23 25 18 26 22 27 20 28 19 29 24 30 25 31 21 32
REMARK H PARENT 21 33
ROOT
ATOM      1  C   UNL     1      15.554  17.050 -15.445  1.00  0.00     0.146 A 
ATOM      2  C   UNL     1      14.690  16.694 -14.468  1.00  0.00     0.059 A 
ATOM      3  C   UNL     1      13.703  15.623 -14.647  1.00  0.00     0.002 A 
ATOM      4  C   UNL     1      13.674  14.975 -15.829  1.00  0.00     0.101 A 
ATOM      5  N   UNL     1      14.564  15.348 -16.830  1.00  0.00    -0.302 N 
ATOM      6  C   UNL     1      14.717  14.849 -18.100  1.00  0.00     0.204 A 
ATOM      7  N   UNL     1      15.674  15.464 -18.764  1.00  0.00    -0.244 NA
ATOM      8  C   UNL     1      16.168  16.402 -17.890  1.00  0.00     0.143 A 
ATOM      9  C   UNL     1      15.500  16.358 -16.687  1.00  0.00     0.107 A 
ENDROOT
BRANCH   1  10
ATOM     10  O   UNL     1      16.516  18.025 -15.412  1.00  0.00    -0.488 OA
BRANCH  10  11
ATOM     11  C   UNL     1      17.565  18.036 -16.386  1.00  0.00     0.177 C 
ATOM     12  N   UNL     1      20.061  19.448 -16.761  1.00  0.00    -0.333 N 
ATOM     13  C   UNL     1      20.120  18.021 -16.479  1.00  0.00     0.089 C 
ATOM     14  C   UNL     1      19.027  19.611 -17.767  1.00  0.00     0.089 C 
ATOM     15  C   UNL     1      20.063  17.414 -17.888  1.00  0.00     0.027 C 
ATOM     16  C   UNL     1      18.875  17.667 -15.650  1.00  0.00     0.070 C 
ATOM     17  C   UNL     1      19.339  18.470 -18.743  1.00  0.00     0.027 C 
ATOM     18  C   UNL     1      17.667  19.416 -17.072  1.00  0.00     0.070 C 
BRANCH  12  19
ATOM     19  C   UNL     1      20.437  20.509 -15.966  1.00  0.00     0.246 C 
ATOM     20  O   UNL     1      19.960  21.633 -16.102  1.00  0.00    -0.270 OA
BRANCH  19  21
ATOM     21  C   UNL     1      21.466  20.240 -14.926  1.00  0.00     0.063 C 
ATOM     22  C   UNL     1      22.517  21.058 -14.785  1.00  0.00     0.014 C 
ENDBRANCH  19  21
ENDBRANCH  12  19
ENDBRANCH  10  11
ENDBRANCH   1  10
BRANCH   3  23
ATOM     23  C   UNL     1      12.758  15.222 -13.589  1.00  0.00    -0.010 A 
ATOM     24  C   UNL     1      13.178  15.356 -12.256  1.00  0.00     0.052 A 
ATOM     25  C   UNL     1      11.459  14.740 -13.871  1.00  0.00    -0.036 A 
ATOM     26  C   UNL     1      12.321  15.007 -11.221  1.00  0.00     0.165 A 
ATOM     27  C   UNL     1      10.612  14.388 -12.801  1.00  0.00     0.053 A 
ATOM     28  C   UNL     1      11.048  14.526 -11.489  1.00  0.00     0.151 A 
ATOM     29  F   UNL     1      12.724  15.136  -9.949  1.00  0.00    -0.203 F 
BRANCH  25  30
ATOM     30  C   UNL     1      10.937  14.559 -15.281  1.00  0.00     0.033 C 
ATOM     31  C   UNL     1       9.911  13.440 -15.370  1.00  0.00     0.009 C 
ENDBRANCH  25  30
BRANCH  28  32
ATOM     32  O   UNL     1      10.198  14.181 -10.479  1.00  0.00    -0.505 OA
ATOM     33  H   UNL     1      10.671  14.342  -9.641  1.00  0.00     0.293 HD
ENDBRANCH  28  32
ENDBRANCH   3  23
TORSDOF 7
ENDMDL
MODEL 9
REMARK minimizedAffinity -7.16730547
REMARK CNNscore 0.258058131
REMARK CNNaffinity 5.80074692
REMARK SMILES C=CC(=O)N1[C@@H]2CC[C@H]1C[C@H](Oc1cc(-c3cc(F)c(O)cc3CC)cn3cncc13)C2
REMARK SMILES IDX 13 1 14 2 15 3 26 4 27 5 28 6 29 7 30 8 31 9 12 10 11 11
REMARK SMILES IDX 5 12 6 13 9 14 7 15 32 16 8 17 10 18 3 19 4 20 2 21 1 22
REMARK SMILES IDX 16 23 17 24 23 25 18 26 22 27 20 28 19 29 24 30 25 31 21 32
REMARK H PARENT 21 33
ROOT
ATOM      1  C   UNL     1       4.282 -12.135 -11.270  1.00  0.00     0.146 A 
ATOM      2  C   UNL     1       3.193 -11.883 -10.509  1.00  0.00     0.059 A 
ATOM      3  C   UNL     1       1.869 -11.637 -11.092  1.00  0.00     0.002 A 
ATOM      4  C   UNL     1       1.748 -11.675 -12.434  1.00  0.00     0.101 A 
ATOM      5  N   UNL     1       2.872 -11.933 -13.210  1.00  0.00    -0.302 N 
ATOM      6  C   UNL     1       2.998 -12.013 -14.575  1.00  0.00     0.204 A 
ATOM      7  N   UNL     1       4.233 -12.275 -14.947  1.00  0.00    -0.244 NA
ATOM      8  C   UNL     1       4.945 -12.372 -13.775  1.00  0.00     0.143 A 
ATOM      9  C   UNL     1       4.131 -12.162 -12.684  1.00  0.00     0.107 A 
ENDROOT
BRANCH   1  10
ATOM     10  O   UNL     1       5.566 -12.377 -10.858  1.00  0.00    -0.488 OA
BRANCH  10  11
ATOM     11  C   UNL     1       6.399 -11.296 -10.423  1.00  0.00     0.177 C 
ATOM     12  N   UNL     1       8.740 -10.998  -8.751  1.00  0.00    -0.333 N 
ATOM     13  C   UNL     1       8.884 -10.745 -10.177  1.00  0.00     0.089 C 
ATOM     14  C   UNL     1       7.522 -10.317  -8.348  1.00  0.00     0.089 C 
ATOM     15  C   UNL     1       8.558  -9.247 -10.271  1.00  0.00     0.027 C 
ATOM     16  C   UNL     1       7.837 -11.606 -10.902  1.00  0.00     0.070 C 
ATOM     17  C   UNL     1       7.656  -8.964  -9.056  1.00  0.00     0.027 C 
ATOM     18  C   UNL     1       6.333 -11.133  -8.889  1.00  0.00     0.070 C 
BRANCH  12  19
ATOM     19  C   UNL     1       9.245 -12.033  -7.995  1.00  0.00     0.246 C 
ATOM     20  O   UNL     1       9.994 -12.886  -8.465  1.00  0.00    -0.270 OA
BRANCH  19  21
ATOM     21  C   UNL     1       8.835 -12.085  -6.565  1.00  0.00     0.063 C 
ATOM     22  C   UNL     1       9.668 -12.579  -5.639  1.00  0.00     0.014 C 
ENDBRANCH  19  21
ENDBRANCH  12  19
ENDBRANCH  10  11
ENDBRANCH   1  10
BRANCH   3  23
ATOM     23  C   UNL     1       0.674 -11.365 -10.274  1.00  0.00    -0.010 A 
ATOM     24  C   UNL     1       0.212 -10.040 -10.216  1.00  0.00     0.052 A 
ATOM     25  C   UNL     1      -0.022 -12.383  -9.581  1.00  0.00    -0.036 A 
ATOM     26  C   UNL     1      -0.919  -9.733  -9.471  1.00  0.00     0.165 A 
ATOM     27  C   UNL     1      -1.164 -12.041  -8.829  1.00  0.00     0.053 A 
ATOM     28  C   UNL     1      -1.603 -10.725  -8.781  1.00  0.00     0.151 A 
ATOM     29  F   UNL     1      -1.358  -8.468  -9.416  1.00  0.00    -0.203 F 
BRANCH  25  30
ATOM     30  C   UNL     1       0.419 -13.831  -9.588  1.00  0.00     0.033 C 
ATOM     31  C   UNL     1      -0.330 -14.661  -8.556  1.00  0.00     0.009 C 
ENDBRANCH  25  30
BRANCH  28  32
ATOM     32  O   UNL     1      -2.716 -10.432  -8.047  1.00  0.00    -0.505 OA
ATOM     33  H   UNL     1      -2.869  -9.472  -8.132  1.00  0.00     0.293 HD
ENDBRANCH  28  32
ENDBRANCH   3  23
TORSDOF 7
ENDMDL
