MODEL 1
REMARK VINA RESULT:      -9.5      0.000      0.000
REMARK SMILES C=CCOC(=O)N1[C@@H]2CCC[C@H]1C[C@@H](Nc1nc(Nc3cc(C)[nH]n3)cc3nc(CN4CCOCC4)ccc13)C2
REMARK SMILES IDX 7 1 8 2 9 3 10 4 11 5 12 6 13 7 14 8 40 9 5 10 6 11 4 12
REMARK SMILES IDX 3 13 2 14 1 15 15 16 16 18 17 19 39 20 18 21 38 22 27 23
REMARK SMILES IDX 26 24 37 25 28 26 29 27 19 28 20 30 21 31 25 32 22 33 24 34
REMARK SMILES IDX 23 35 30 37 31 38 32 39 36 40 33 41 35 42 34 43
REMARK H PARENT 15 17 19 29 24 36
ROOT
ATOM      1  N   UNL     1       9.977  13.008 -17.099  1.00  0.00    -0.302 N 
ATOM      2  C   UNL     1      11.080  12.181 -17.582  1.00  0.00     0.091 C 
ATOM      3  C   UNL     1      11.756  11.429 -16.419  1.00  0.00     0.025 C 
ATOM      4  C   UNL     1      11.228  11.834 -15.045  1.00  0.00     0.004 C 
ATOM      5  C   UNL     1      11.047  13.342 -14.894  1.00  0.00     0.025 C 
ATOM      6  C   UNL     1      10.401  14.006 -16.124  1.00  0.00     0.091 C 
ATOM      7  C   UNL     1      11.331  15.009 -16.831  1.00  0.00     0.050 C 
ATOM      8  C   UNL     1      12.501  14.352 -17.598  1.00  0.00     0.084 C 
ATOM      9  C   UNL     1      12.047  13.088 -18.367  1.00  0.00     0.050 C 
ENDROOT
BRANCH   1  10
ATOM     10  C   UNL     1       8.809  13.212 -17.819  1.00  0.00     0.410 C 
ATOM     11  O   UNL     1       8.006  14.104 -17.575  1.00  0.00    -0.224 OA
BRANCH  10  12
ATOM     12  O   UNL     1       8.663  12.316 -18.830  1.00  0.00    -0.445 OA
BRANCH  12  13
ATOM     13  C   UNL     1       7.473  11.520 -18.807  1.00  0.00     0.262 C 
BRANCH  13  14
ATOM     14  C   UNL     1       7.540  10.520 -19.922  1.00  0.00     0.006 C 
ATOM     15  C   UNL     1       8.319  10.636 -21.006  1.00  0.00     0.007 C 
ENDBRANCH  13  14
ENDBRANCH  12  13
ENDBRANCH  10  12
ENDBRANCH   1  10
BRANCH   8  16
ATOM     16  N   UNL     1      13.623  14.012 -16.708  1.00  0.00    -0.367 N 
ATOM     17  H   UNL     1      14.365  13.523 -17.205  1.00  0.00     0.162 HD
BRANCH  16  18
ATOM     18  C   UNL     1      14.251  15.082 -16.027  1.00  0.00     0.138 A 
ATOM     19  N   UNL     1      13.923  15.323 -14.743  1.00  0.00    -0.213 NA
ATOM     20  C   UNL     1      15.204  15.865 -16.713  1.00  0.00     0.043 A 
ATOM     21  C   UNL     1      14.506  16.350 -14.090  1.00  0.00     0.136 A 
ATOM     22  C   UNL     1      15.617  15.646 -18.045  1.00  0.00     0.016 A 
ATOM     23  C   UNL     1      15.797  16.933 -16.025  1.00  0.00     0.078 A 
ATOM     24  C   UNL     1      15.435  17.163 -14.714  1.00  0.00     0.076 A 
ATOM     25  C   UNL     1      16.563  16.476 -18.634  1.00  0.00     0.026 A 
ATOM     26  N   UNL     1      16.714  17.741 -16.594  1.00  0.00    -0.251 NA
ATOM     27  C   UNL     1      17.092  17.512 -17.878  1.00  0.00     0.055 A 
BRANCH  21  28
ATOM     28  N   UNL     1      14.086  16.502 -12.769  1.00  0.00    -0.323 N 
ATOM     29  H   UNL     1      14.511  17.348 -12.411  1.00  0.00     0.170 HD
BRANCH  28  30
ATOM     30  C   UNL     1      13.281  15.772 -11.972  1.00  0.00     0.153 A 
ATOM     31  C   UNL     1      11.952  15.458 -12.357  1.00  0.00     0.071 A 
ATOM     32  N   UNL     1      13.557  15.254 -10.773  1.00  0.00    -0.158 NA
ATOM     33  C   UNL     1      11.426  14.716 -11.325  1.00  0.00     0.034 A 
ATOM     34  N   UNL     1      12.433  14.623 -10.406  1.00  0.00    -0.281 N 
ATOM     35  C   UNL     1      10.102  14.095 -11.119  1.00  0.00     0.066 C 
ATOM     36  H   UNL     1      12.423  14.148  -9.510  1.00  0.00     0.190 HD
ENDBRANCH  28  30
ENDBRANCH  21  28
BRANCH  27  37
ATOM     37  C   UNL     1      18.125  18.450 -18.477  1.00  0.00     0.140 C 
BRANCH  37  38
ATOM     38  N   UNL     1      19.144  18.914 -17.511  1.00  0.00    -0.293 NA
ATOM     39  C   UNL     1      19.559  20.306 -17.798  1.00  0.00     0.113 C 
ATOM     40  C   UNL     1      20.322  18.013 -17.518  1.00  0.00     0.113 C 
ATOM     41  C   UNL     1      20.883  20.407 -18.571  1.00  0.00     0.175 C 
ATOM     42  C   UNL     1      21.590  18.725 -17.023  1.00  0.00     0.175 C 
ATOM     43  O   UNL     1      21.985  19.814 -17.870  1.00  0.00    -0.379 OA
ENDBRANCH  37  38
ENDBRANCH  27  37
ENDBRANCH  16  18
ENDBRANCH   8  16
TORSDOF 10
ENDMDL
MODEL 2
REMARK VINA RESULT:      -9.2      1.393      2.096
REMARK SMILES C=CCOC(=O)N1[C@@H]2CCC[C@H]1C[C@@H](Nc1nc(Nc3cc(C)[nH]n3)cc3nc(CN4CCOCC4)ccc13)C2
REMARK SMILES IDX 7 1 8 2 9 3 10 4 11 5 12 6 13 7 14 8 40 9 5 10 6 11 4 12
REMARK SMILES IDX 3 13 2 14 1 15 15 16 16 18 17 19 39 20 18 21 38 22 27 23
REMARK SMILES IDX 26 24 37 25 28 26 29 27 19 28 20 30 21 31 25 32 22 33 24 34
REMARK SMILES IDX 23 35 30 37 31 38 32 39 36 40 33 41 35 42 34 43
REMARK H PARENT 15 17 19 29 24 36
ROOT
ATOM      1  N   UNL     1      11.032  12.706 -16.678  1.00  0.00    -0.302 N 
ATOM      2  C   UNL     1      11.371  13.540 -15.528  1.00  0.00     0.091 C 
ATOM      3  C   UNL     1      10.837  14.974 -15.709  1.00  0.00     0.025 C 
ATOM      4  C   UNL     1      10.227  15.226 -17.086  1.00  0.00     0.004 C 
ATOM      5  C   UNL     1      11.056  14.637 -18.224  1.00  0.00     0.025 C 
ATOM      6  C   UNL     1      11.578  13.218 -17.930  1.00  0.00     0.091 C 
ATOM      7  C   UNL     1      13.113  13.138 -17.858  1.00  0.00     0.050 C 
ATOM      8  C   UNL     1      13.721  13.798 -16.598  1.00  0.00     0.084 C 
ATOM      9  C   UNL     1      12.898  13.477 -15.327  1.00  0.00     0.050 C 
ENDROOT
BRANCH   1  10
ATOM     10  C   UNL     1      10.715  11.360 -16.573  1.00  0.00     0.410 C 
ATOM     11  O   UNL     1      11.244  10.595 -15.777  1.00  0.00    -0.224 OA
BRANCH  10  12
ATOM     12  O   UNL     1       9.744  10.990 -17.450  1.00  0.00    -0.445 OA
BRANCH  12  13
ATOM     13  C   UNL     1       8.662  11.911 -17.625  1.00  0.00     0.262 C 
BRANCH  13  14
ATOM     14  C   UNL     1       8.256  11.909 -19.068  1.00  0.00     0.006 C 
ATOM     15  C   UNL     1       9.030  11.490 -20.079  1.00  0.00     0.007 C 
ENDBRANCH  13  14
ENDBRANCH  12  13
ENDBRANCH  10  12
ENDBRANCH   1  10
BRANCH   8  16
ATOM     16  N   UNL     1      13.850  15.256 -16.747  1.00  0.00    -0.367 N 
ATOM     17  H   UNL     1      12.941  15.712 -16.798  1.00  0.00     0.162 HD
BRANCH  16  18
ATOM     18  C   UNL     1      14.574  15.944 -15.744  1.00  0.00     0.138 A 
ATOM     19  N   UNL     1      14.133  15.897 -14.472  1.00  0.00    -0.213 NA
ATOM     20  C   UNL     1      15.736  16.658 -16.104  1.00  0.00     0.043 A 
ATOM     21  C   UNL     1      14.807  16.561 -13.510  1.00  0.00     0.136 A 
ATOM     22  C   UNL     1      16.270  16.720 -17.409  1.00  0.00     0.016 A 
ATOM     23  C   UNL     1      16.424  17.349 -15.097  1.00  0.00     0.078 A 
ATOM     24  C   UNL     1      15.943  17.292 -13.804  1.00  0.00     0.076 A 
ATOM     25  C   UNL     1      17.423  17.454 -17.664  1.00  0.00     0.026 A 
ATOM     26  N   UNL     1      17.541  18.063 -15.341  1.00  0.00    -0.251 NA
ATOM     27  C   UNL     1      18.033  18.110 -16.606  1.00  0.00     0.055 A 
BRANCH  21  28
ATOM     28  N   UNL     1      14.255  16.442 -12.235  1.00  0.00    -0.323 N 
ATOM     29  H   UNL     1      14.769  17.062 -11.622  1.00  0.00     0.170 HD
BRANCH  28  30
ATOM     30  C   UNL     1      13.243  15.703 -11.739  1.00  0.00     0.153 A 
ATOM     31  C   UNL     1      12.056  15.485 -12.486  1.00  0.00     0.071 A 
ATOM     32  N   UNL     1      13.170  15.093 -10.554  1.00  0.00    -0.158 NA
ATOM     33  C   UNL     1      11.250  14.704 -11.690  1.00  0.00     0.034 A 
ATOM     34  N   UNL     1      11.970  14.498 -10.548  1.00  0.00    -0.281 N 
ATOM     35  C   UNL     1       9.899  14.139 -11.892  1.00  0.00     0.066 C 
ATOM     36  H   UNL     1      11.705  13.966  -9.726  1.00  0.00     0.190 HD
ENDBRANCH  28  30
ENDBRANCH  21  28
BRANCH  27  37
ATOM     37  C   UNL     1      19.292  18.929 -16.832  1.00  0.00     0.140 C 
BRANCH  37  38
ATOM     38  N   UNL     1      20.504  18.346 -16.220  1.00  0.00    -0.293 NA
ATOM     39  C   UNL     1      21.482  19.398 -15.861  1.00  0.00     0.113 C 
ATOM     40  C   UNL     1      21.126  17.354 -17.131  1.00  0.00     0.113 C 
ATOM     41  C   UNL     1      22.614  19.562 -16.887  1.00  0.00     0.175 C 
ATOM     42  C   UNL     1      22.624  17.170 -16.842  1.00  0.00     0.175 C 
ATOM     43  O   UNL     1      23.385  18.366 -17.064  1.00  0.00    -0.379 OA
ENDBRANCH  37  38
ENDBRANCH  27  37
ENDBRANCH  16  18
ENDBRANCH   8  16
TORSDOF 10
ENDMDL
MODEL 3
REMARK VINA RESULT:      -9.1      3.753     10.004
REMARK SMILES C=CCOC(=O)N1[C@@H]2CCC[C@H]1C[C@@H](Nc1nc(Nc3cc(C)[nH]n3)cc3nc(CN4CCOCC4)ccc13)C2
REMARK SMILES IDX 7 1 8 2 9 3 10 4 11 5 12 6 13 7 14 8 40 9 5 10 6 11 4 12
REMARK SMILES IDX 3 13 2 14 1 15 15 16 16 18 17 19 39 20 18 21 38 22 27 23
REMARK SMILES IDX 26 24 37 25 28 26 29 27 19 28 20 30 21 31 25 32 22 33 24 34
REMARK SMILES IDX 23 35 30 37 31 38 32 39 36 40 33 41 35 42 34 43
REMARK H PARENT 15 17 19 29 24 36
ROOT
ATOM      1  N   UNL     1      10.922  13.790 -15.140  1.00  0.00    -0.302 N 
ATOM      2  C   UNL     1      10.431  14.312 -16.412  1.00  0.00     0.091 C 
ATOM      3  C   UNL     1       9.492  13.302 -17.099  1.00  0.00     0.025 C 
ATOM      4  C   UNL     1       9.418  11.956 -16.382  1.00  0.00     0.004 C 
ATOM      5  C   UNL     1      10.782  11.447 -15.923  1.00  0.00     0.025 C 
ATOM      6  C   UNL     1      11.661  12.540 -15.287  1.00  0.00     0.091 C 
ATOM      7  C   UNL     1      12.945  12.829 -16.086  1.00  0.00     0.050 C 
ATOM      8  C   UNL     1      12.704  13.572 -17.421  1.00  0.00     0.084 C 
ATOM      9  C   UNL     1      11.651  14.696 -17.272  1.00  0.00     0.050 C 
ENDROOT
BRANCH   1  10
ATOM     10  C   UNL     1      11.146  14.586 -14.027  1.00  0.00     0.410 C 
ATOM     11  O   UNL     1      10.662  14.366 -12.923  1.00  0.00    -0.224 OA
BRANCH  10  12
ATOM     12  O   UNL     1      11.970  15.632 -14.299  1.00  0.00    -0.445 OA
BRANCH  12  13
ATOM     13  C   UNL     1      13.062  15.832 -13.395  1.00  0.00     0.262 C 
BRANCH  13  14
ATOM     14  C   UNL     1      14.294  16.145 -14.190  1.00  0.00     0.006 C 
ATOM     15  C   UNL     1      15.332  16.862 -13.740  1.00  0.00     0.007 C 
ENDBRANCH  13  14
ENDBRANCH  12  13
ENDBRANCH  10  12
ENDBRANCH   1  10
BRANCH   8  16
ATOM     16  N   UNL     1      12.297  12.653 -18.497  1.00  0.00    -0.367 N 
ATOM     17  H   UNL     1      11.323  12.371 -18.404  1.00  0.00     0.162 HD
BRANCH  16  18
ATOM     18  C   UNL     1      12.441  13.116 -19.827  1.00  0.00     0.138 A 
ATOM     19  N   UNL     1      13.393  14.029 -20.101  1.00  0.00    -0.213 NA
ATOM     20  C   UNL     1      11.586  12.607 -20.826  1.00  0.00     0.043 A 
ATOM     21  C   UNL     1      13.530  14.487 -21.364  1.00  0.00     0.136 A 
ATOM     22  C   UNL     1      10.592  11.627 -20.612  1.00  0.00     0.016 A 
ATOM     23  C   UNL     1      11.733  13.096 -22.132  1.00  0.00     0.078 A 
ATOM     24  C   UNL     1      12.709  14.039 -22.382  1.00  0.00     0.076 A 
ATOM     25  C   UNL     1       9.796  11.191 -21.665  1.00  0.00     0.026 A 
ATOM     26  N   UNL     1      10.961  12.676 -23.154  1.00  0.00    -0.251 NA
ATOM     27  C   UNL     1      10.010  11.735 -22.923  1.00  0.00     0.055 A 
BRANCH  21  28
ATOM     28  N   UNL     1      14.544  15.429 -21.525  1.00  0.00    -0.323 N 
ATOM     29  H   UNL     1      15.328  14.960 -21.961  1.00  0.00     0.170 HD
BRANCH  28  30
ATOM     30  C   UNL     1      14.637  16.739 -21.222  1.00  0.00     0.153 A 
ATOM     31  C   UNL     1      15.812  17.278 -20.638  1.00  0.00     0.071 A 
ATOM     32  N   UNL     1      13.720  17.693 -21.397  1.00  0.00    -0.158 NA
ATOM     33  C   UNL     1      15.565  18.620 -20.463  1.00  0.00     0.034 A 
ATOM     34  N   UNL     1      14.299  18.812 -20.939  1.00  0.00    -0.281 N 
ATOM     35  C   UNL     1      16.382  19.719 -19.910  1.00  0.00     0.066 C 
ATOM     36  H   UNL     1      13.768  19.675 -20.980  1.00  0.00     0.190 HD
ENDBRANCH  28  30
ENDBRANCH  21  28
BRANCH  27  37
ATOM     37  C   UNL     1       9.164  11.296 -24.104  1.00  0.00     0.140 C 
BRANCH  37  38
ATOM     38  N   UNL     1       7.722  11.178 -23.798  1.00  0.00    -0.293 NA
ATOM     39  C   UNL     1       7.250   9.786 -23.972  1.00  0.00     0.113 C 
ATOM     40  C   UNL     1       6.929  12.101 -24.646  1.00  0.00     0.113 C 
ATOM     41  C   UNL     1       6.536   9.541 -25.311  1.00  0.00     0.175 C 
ATOM     42  C   UNL     1       5.477  11.625 -24.806  1.00  0.00     0.175 C 
ATOM     43  O   UNL     1       5.375  10.364 -25.482  1.00  0.00    -0.379 OA
ENDBRANCH  37  38
ENDBRANCH  27  37
ENDBRANCH  16  18
ENDBRANCH   8  16
TORSDOF 10
ENDMDL
MODEL 4
REMARK VINA RESULT:      -8.1      3.309      6.947
REMARK SMILES C=CCOC(=O)N1[C@@H]2CCC[C@H]1C[C@@H](Nc1nc(Nc3cc(C)[nH]n3)cc3nc(CN4CCOCC4)ccc13)C2
REMARK SMILES IDX 7 1 8 2 9 3 10 4 11 5 12 6 13 7 14 8 40 9 5 10 6 11 4 12
REMARK SMILES IDX 3 13 2 14 1 15 15 16 16 18 17 19 39 20 18 21 38 22 27 23
REMARK SMILES IDX 26 24 37 25 28 26 29 27 19 28 20 30 21 31 25 32 22 33 24 34
REMARK SMILES IDX 23 35 30 37 31 38 32 39 36 40 33 41 35 42 34 43
REMARK H PARENT 15 17 19 29 24 36
ROOT
ATOM      1  N   UNL     1      10.486  13.445 -14.816  1.00  0.00    -0.302 N 
ATOM      2  C   UNL     1      10.123  14.118 -16.060  1.00  0.00     0.091 C 
ATOM      3  C   UNL     1       9.593  13.112 -17.099  1.00  0.00     0.025 C 
ATOM      4  C   UNL     1       9.714  11.656 -16.652  1.00  0.00     0.004 C 
ATOM      5  C   UNL     1      11.054  11.343 -15.991  1.00  0.00     0.025 C 
ATOM      6  C   UNL     1      11.516  12.429 -15.001  1.00  0.00     0.091 C 
ATOM      7  C   UNL     1      12.817  13.130 -15.433  1.00  0.00     0.050 C 
ATOM      8  C   UNL     1      12.651  14.077 -16.644  1.00  0.00     0.084 C 
ATOM      9  C   UNL     1      11.351  14.911 -16.549  1.00  0.00     0.050 C 
ENDROOT
BRANCH   1  10
ATOM     10  C   UNL     1      10.308  14.015 -13.564  1.00  0.00     0.410 C 
ATOM     11  O   UNL     1       9.251  13.988 -12.947  1.00  0.00    -0.224 OA
BRANCH  10  12
ATOM     12  O   UNL     1      11.444  14.597 -13.097  1.00  0.00    -0.445 OA
BRANCH  12  13
ATOM     13  C   UNL     1      11.604  14.627 -11.674  1.00  0.00     0.262 C 
BRANCH  13  14
ATOM     14  C   UNL     1      12.884  15.337 -11.348  1.00  0.00     0.006 C 
ATOM     15  C   UNL     1      13.637  16.000 -12.236  1.00  0.00     0.007 C 
ENDBRANCH  13  14
ENDBRANCH  12  13
ENDBRANCH  10  12
ENDBRANCH   1  10
BRANCH   8  16
ATOM     16  N   UNL     1      12.676  13.346 -17.922  1.00  0.00    -0.367 N 
ATOM     17  H   UNL     1      11.812  12.831 -18.078  1.00  0.00     0.162 HD
BRANCH  16  18
ATOM     18  C   UNL     1      12.891  14.109 -19.095  1.00  0.00     0.138 A 
ATOM     19  N   UNL     1      12.042  13.968 -20.131  1.00  0.00    -0.213 NA
ATOM     20  C   UNL     1      13.987  14.995 -19.144  1.00  0.00     0.043 A 
ATOM     21  C   UNL     1      12.247  14.680 -21.259  1.00  0.00     0.136 A 
ATOM     22  C   UNL     1      14.894  15.215 -18.084  1.00  0.00     0.016 A 
ATOM     23  C   UNL     1      14.193  15.724 -20.324  1.00  0.00     0.078 A 
ATOM     24  C   UNL     1      13.314  15.552 -21.374  1.00  0.00     0.076 A 
ATOM     25  C   UNL     1      15.947  16.110 -18.232  1.00  0.00     0.026 A 
ATOM     26  N   UNL     1      15.215  16.592 -20.471  1.00  0.00    -0.251 NA
ATOM     27  C   UNL     1      16.075  16.783 -19.438  1.00  0.00     0.055 A 
BRANCH  21  28
ATOM     28  N   UNL     1      11.307  14.449 -22.262  1.00  0.00    -0.323 N 
ATOM     29  H   UNL     1      10.573  15.138 -22.155  1.00  0.00     0.170 HD
BRANCH  28  30
ATOM     30  C   UNL     1      11.228  13.541 -23.255  1.00  0.00     0.153 A 
ATOM     31  C   UNL     1      12.295  12.642 -23.516  1.00  0.00     0.071 A 
ATOM     32  N   UNL     1      10.222  13.335 -24.107  1.00  0.00    -0.158 NA
ATOM     33  C   UNL     1      11.885  11.871 -24.580  1.00  0.00     0.034 A 
ATOM     34  N   UNL     1      10.636  12.328 -24.889  1.00  0.00    -0.281 N 
ATOM     35  C   UNL     1      12.534  10.767 -25.317  1.00  0.00     0.066 C 
ATOM     36  H   UNL     1      10.011  12.002 -25.618  1.00  0.00     0.190 HD
ENDBRANCH  28  30
ENDBRANCH  21  28
BRANCH  27  37
ATOM     37  C   UNL     1      17.211  17.768 -19.652  1.00  0.00     0.140 C 
BRANCH  37  38
ATOM     38  N   UNL     1      17.498  18.616 -18.476  1.00  0.00    -0.293 NA
ATOM     39  C   UNL     1      16.697  19.860 -18.503  1.00  0.00     0.113 C 
ATOM     40  C   UNL     1      18.945  18.935 -18.402  1.00  0.00     0.113 C 
ATOM     41  C   UNL     1      17.474  21.081 -19.022  1.00  0.00     0.175 C 
ATOM     42  C   UNL     1      19.206  20.226 -17.611  1.00  0.00     0.175 C 
ATOM     43  O   UNL     1      18.628  21.386 -18.229  1.00  0.00    -0.379 OA
ENDBRANCH  37  38
ENDBRANCH  27  37
ENDBRANCH  16  18
ENDBRANCH   8  16
TORSDOF 10
ENDMDL
MODEL 5
REMARK VINA RESULT:      -7.8      3.823      6.905
REMARK SMILES C=CCOC(=O)N1[C@@H]2CCC[C@H]1C[C@@H](Nc1nc(Nc3cc(C)[nH]n3)cc3nc(CN4CCOCC4)ccc13)C2
REMARK SMILES IDX 7 1 8 2 9 3 10 4 11 5 12 6 13 7 14 8 40 9 5 10 6 11 4 12
REMARK SMILES IDX 3 13 2 14 1 15 15 16 16 18 17 19 39 20 18 21 38 22 27 23
REMARK SMILES IDX 26 24 37 25 28 26 29 27 19 28 20 30 21 31 25 32 22 33 24 34
REMARK SMILES IDX 23 35 30 37 31 38 32 39 36 40 33 41 35 42 34 43
REMARK H PARENT 15 17 19 29 24 36
ROOT
ATOM      1  N   UNL     1      10.386  13.608 -14.964  1.00  0.00    -0.302 N 
ATOM      2  C   UNL     1      10.216  14.464 -16.134  1.00  0.00     0.091 C 
ATOM      3  C   UNL     1       9.539  13.697 -17.286  1.00  0.00     0.025 C 
ATOM      4  C   UNL     1       9.351  12.209 -16.998  1.00  0.00     0.004 C 
ATOM      5  C   UNL     1      10.574  11.566 -16.349  1.00  0.00     0.025 C 
ATOM      6  C   UNL     1      11.201  12.429 -15.237  1.00  0.00     0.091 C 
ATOM      7  C   UNL     1      12.632  12.895 -15.564  1.00  0.00     0.050 C 
ATOM      8  C   UNL     1      12.707  13.974 -16.669  1.00  0.00     0.084 C 
ATOM      9  C   UNL     1      11.595  15.039 -16.510  1.00  0.00     0.050 C 
ENDROOT
BRANCH   1  10
ATOM     10  C   UNL     1      10.273  14.070 -13.661  1.00  0.00     0.410 C 
ATOM     11  O   UNL     1       9.491  13.609 -12.840  1.00  0.00    -0.224 OA
BRANCH  10  12
ATOM     12  O   UNL     1      11.136  15.087 -13.398  1.00  0.00    -0.445 OA
BRANCH  12  13
ATOM     13  C   UNL     1      11.803  15.043 -12.132  1.00  0.00     0.262 C 
BRANCH  13  14
ATOM     14  C   UNL     1      13.129  15.733 -12.262  1.00  0.00     0.006 C 
ATOM     15  C   UNL     1      13.691  16.095 -13.422  1.00  0.00     0.007 C 
ENDBRANCH  13  14
ENDBRANCH  12  13
ENDBRANCH  10  12
ENDBRANCH   1  10
BRANCH   8  16
ATOM     16  N   UNL     1      12.639  13.388 -18.018  1.00  0.00    -0.367 N 
ATOM     17  H   UNL     1      11.723  12.986 -18.209  1.00  0.00     0.162 HD
BRANCH  16  18
ATOM     18  C   UNL     1      12.921  14.247 -19.107  1.00  0.00     0.138 A 
ATOM     19  N   UNL     1      12.065  14.287 -20.147  1.00  0.00    -0.213 NA
ATOM     20  C   UNL     1      14.089  15.038 -19.072  1.00  0.00     0.043 A 
ATOM     21  C   UNL     1      12.333  15.092 -21.197  1.00  0.00     0.136 A 
ATOM     22  C   UNL     1      15.008  15.069 -18.001  1.00  0.00     0.016 A 
ATOM     23  C   UNL     1      14.359  15.864 -20.172  1.00  0.00     0.078 A 
ATOM     24  C   UNL     1      13.470  15.877 -21.228  1.00  0.00     0.076 A 
ATOM     25  C   UNL     1      16.134  15.882 -18.062  1.00  0.00     0.026 A 
ATOM     26  N   UNL     1      15.450  16.653 -20.235  1.00  0.00    -0.251 NA
ATOM     27  C   UNL     1      16.321  16.663 -19.193  1.00  0.00     0.055 A 
BRANCH  21  28
ATOM     28  N   UNL     1      11.379  15.046 -22.212  1.00  0.00    -0.323 N 
ATOM     29  H   UNL     1      10.950  14.129 -22.184  1.00  0.00     0.170 HD
BRANCH  28  30
ATOM     30  C   UNL     1      10.977  15.942 -23.135  1.00  0.00     0.153 A 
ATOM     31  C   UNL     1      11.280  17.321 -23.003  1.00  0.00     0.071 A 
ATOM     32  N   UNL     1      10.276  15.720 -24.249  1.00  0.00    -0.158 NA
ATOM     33  C   UNL     1      10.725  17.936 -24.101  1.00  0.00     0.034 A 
ATOM     34  N   UNL     1      10.140  16.928 -24.814  1.00  0.00    -0.281 N 
ATOM     35  C   UNL     1      10.692  19.345 -24.543  1.00  0.00     0.066 C 
ATOM     36  H   UNL     1       9.632  16.991 -25.689  1.00  0.00     0.190 HD
ENDBRANCH  28  30
ENDBRANCH  21  28
BRANCH  27  37
ATOM     37  C   UNL     1      17.537  17.565 -19.312  1.00  0.00     0.140 C 
BRANCH  37  38
ATOM     38  N   UNL     1      17.477  18.504 -20.451  1.00  0.00    -0.293 NA
ATOM     39  C   UNL     1      18.739  18.490 -21.224  1.00  0.00     0.113 C 
ATOM     40  C   UNL     1      17.175  19.879 -19.981  1.00  0.00     0.113 C 
ATOM     41  C   UNL     1      19.683  19.655 -20.883  1.00  0.00     0.175 C 
ATOM     42  C   UNL     1      17.670  20.944 -20.972  1.00  0.00     0.175 C 
ATOM     43  O   UNL     1      19.096  20.939 -21.130  1.00  0.00    -0.379 OA
ENDBRANCH  37  38
ENDBRANCH  27  37
ENDBRANCH  16  18
ENDBRANCH   8  16
TORSDOF 10
ENDMDL
MODEL 6
REMARK VINA RESULT:      -6.5     30.237     32.212
REMARK SMILES C=CCOC(=O)N1[C@@H]2CCC[C@H]1C[C@@H](Nc1nc(Nc3cc(C)[nH]n3)cc3nc(CN4CCOCC4)ccc13)C2
REMARK SMILES IDX 7 1 8 2 9 3 10 4 11 5 12 6 13 7 14 8 40 9 5 10 6 11 4 12
REMARK SMILES IDX 3 13 2 14 1 15 15 16 16 18 17 19 39 20 18 21 38 22 27 23
REMARK SMILES IDX 26 24 37 25 28 26 29 27 19 28 20 30 21 31 25 32 22 33 24 34
REMARK SMILES IDX 23 35 30 37 31 38 32 39 36 40 33 41 35 42 34 43
REMARK H PARENT 15 17 19 29 24 36
ROOT
ATOM      1  N   UNL     1       1.045 -13.161 -10.317  1.00  0.00    -0.302 N 
ATOM      2  C   UNL     1       1.790 -14.199 -11.025  1.00  0.00     0.091 C 
ATOM      3  C   UNL     1       3.251 -14.260 -10.539  1.00  0.00     0.025 C 
ATOM      4  C   UNL     1       3.614 -13.143  -9.564  1.00  0.00     0.004 C 
ATOM      5  C   UNL     1       3.072 -11.780  -9.986  1.00  0.00     0.025 C 
ATOM      6  C   UNL     1       1.618 -11.831 -10.494  1.00  0.00     0.091 C 
ATOM      7  C   UNL     1       1.479 -11.438 -11.976  1.00  0.00     0.050 C 
ATOM      8  C   UNL     1       2.032 -12.491 -12.963  1.00  0.00     0.084 C 
ATOM      9  C   UNL     1       1.659 -13.932 -12.537  1.00  0.00     0.050 C 
ENDROOT
BRANCH   1  10
ATOM     10  C   UNL     1      -0.292 -13.286  -9.973  1.00  0.00     0.410 C 
ATOM     11  O   UNL     1      -1.132 -13.823 -10.684  1.00  0.00    -0.224 OA
BRANCH  10  12
ATOM     12  O   UNL     1      -0.562 -12.752  -8.752  1.00  0.00    -0.445 OA
BRANCH  12  13
ATOM     13  C   UNL     1      -1.760 -11.974  -8.650  1.00  0.00     0.262 C 
BRANCH  13  14
ATOM     14  C   UNL     1      -1.396 -10.520  -8.704  1.00  0.00     0.006 C 
ATOM     15  C   UNL     1      -2.257  -9.526  -8.960  1.00  0.00     0.007 C 
ENDBRANCH  13  14
ENDBRANCH  12  13
ENDBRANCH  10  12
ENDBRANCH   1  10
BRANCH   8  16
ATOM     16  N   UNL     1       3.492 -12.386 -13.121  1.00  0.00    -0.367 N 
ATOM     17  H   UNL     1       3.979 -12.544 -12.241  1.00  0.00     0.162 HD
BRANCH  16  18
ATOM     18  C   UNL     1       4.101 -13.250 -14.062  1.00  0.00     0.138 A 
ATOM     19  N   UNL     1       3.440 -13.552 -15.197  1.00  0.00    -0.213 NA
ATOM     20  C   UNL     1       5.383 -13.770 -13.786  1.00  0.00     0.043 A 
ATOM     21  C   UNL     1       4.007 -14.386 -16.094  1.00  0.00     0.136 A 
ATOM     22  C   UNL     1       6.142 -13.468 -12.634  1.00  0.00     0.016 A 
ATOM     23  C   UNL     1       5.957 -14.641 -14.722  1.00  0.00     0.078 A 
ATOM     24  C   UNL     1       5.254 -14.940 -15.871  1.00  0.00     0.076 A 
ATOM     25  C   UNL     1       7.399 -14.034 -12.451  1.00  0.00     0.026 A 
ATOM     26  N   UNL     1       7.175 -15.192 -14.546  1.00  0.00    -0.251 NA
ATOM     27  C   UNL     1       7.885 -14.889 -13.429  1.00  0.00     0.055 A 
BRANCH  21  28
ATOM     28  N   UNL     1       3.229 -14.626 -17.225  1.00  0.00    -0.323 N 
ATOM     29  H   UNL     1       3.292 -13.806 -17.816  1.00  0.00     0.170 HD
BRANCH  28  30
ATOM     30  C   UNL     1       2.478 -15.674 -17.618  1.00  0.00     0.153 A 
ATOM     31  C   UNL     1       2.206 -15.911 -18.990  1.00  0.00     0.071 A 
ATOM     32  N   UNL     1       1.898 -16.605 -16.857  1.00  0.00    -0.158 NA
ATOM     33  C   UNL     1       1.424 -17.043 -19.029  1.00  0.00     0.034 A 
ATOM     34  N   UNL     1       1.275 -17.416 -17.723  1.00  0.00    -0.281 N 
ATOM     35  C   UNL     1       0.818 -17.796 -20.146  1.00  0.00     0.066 C 
ATOM     36  H   UNL     1       0.763 -18.208 -17.352  1.00  0.00     0.190 HD
ENDBRANCH  28  30
ENDBRANCH  21  28
BRANCH  27  37
ATOM     37  C   UNL     1       9.249 -15.538 -13.275  1.00  0.00     0.140 C 
BRANCH  37  38
ATOM     38  N   UNL     1       9.226 -16.810 -12.522  1.00  0.00    -0.293 NA
ATOM     39  C   UNL     1       9.788 -16.638 -11.163  1.00  0.00     0.113 C 
ATOM     40  C   UNL     1       9.965 -17.866 -13.256  1.00  0.00     0.113 C 
ATOM     41  C   UNL     1      11.249 -17.100 -11.038  1.00  0.00     0.175 C 
ATOM     42  C   UNL     1      10.473 -18.969 -12.314  1.00  0.00     0.175 C 
ATOM     43  O   UNL     1      11.424 -18.488 -11.353  1.00  0.00    -0.379 OA
ENDBRANCH  37  38
ENDBRANCH  27  37
ENDBRANCH  16  18
ENDBRANCH   8  16
TORSDOF 10
ENDMDL
