MODEL 1
REMARK VINA RESULT:      -9.1      0.000      0.000
REMARK SMILES C=CC(=O)N1CCC(Oc2cc(-c3cc(F)c(O)cc3CC)cn3cncc23)CC1
REMARK SMILES IDX 10 1 11 2 12 3 23 4 24 5 25 6 26 7 27 8 28 9 9 10 8 11 3 12
REMARK SMILES IDX 4 13 5 14 6 15 30 16 7 17 29 18 2 19 1 20 13 21 14 22 20 23
REMARK SMILES IDX 15 24 19 25 17 26 16 27 21 28 22 29 18 30
REMARK H PARENT 18 31
ROOT
ATOM      1  C   UNL     1      11.235  12.987 -17.646  1.00  0.00     0.146 A 
ATOM      2  C   UNL     1      11.751  13.433 -16.478  1.00  0.00     0.059 A 
ATOM      3  C   UNL     1      10.906  13.947 -15.394  1.00  0.00     0.002 A 
ATOM      4  C   UNL     1       9.571  13.953 -15.578  1.00  0.00     0.101 A 
ATOM      5  N   UNL     1       9.047  13.490 -16.779  1.00  0.00    -0.302 N 
ATOM      6  C   UNL     1       7.742  13.405 -17.195  1.00  0.00     0.204 A 
ATOM      7  N   UNL     1       7.637  12.911 -18.410  1.00  0.00    -0.244 NA
ATOM      8  C   UNL     1       8.928  12.660 -18.806  1.00  0.00     0.143 A 
ATOM      9  C   UNL     1       9.824  13.009 -17.820  1.00  0.00     0.107 A 
ENDROOT
BRANCH   1  10
ATOM     10  O   UNL     1      11.907  12.489 -18.732  1.00  0.00    -0.488 OA
BRANCH  10  11
ATOM     11  C   UNL     1      13.069  13.170 -19.225  1.00  0.00     0.177 C 
ATOM     12  C   UNL     1      14.032  15.358 -22.842  1.00  0.00     0.245 C 
ATOM     13  O   UNL     1      13.858  14.880 -23.961  1.00  0.00    -0.270 OA
ATOM     14  N   UNL     1      13.712  14.701 -21.664  1.00  0.00    -0.339 N 
ATOM     15  C   UNL     1      13.219  13.329 -21.759  1.00  0.00     0.123 C 
ATOM     16  C   UNL     1      13.625  15.353 -20.356  1.00  0.00     0.123 C 
ATOM     17  C   UNL     1      13.578  12.518 -20.519  1.00  0.00     0.067 C 
ATOM     18  C   UNL     1      12.661  14.634 -19.426  1.00  0.00     0.067 C 
BRANCH  12  19
ATOM     19  C   UNL     1      14.589  16.729 -22.745  1.00  0.00     0.063 C 
ATOM     20  C   UNL     1      15.857  17.008 -23.074  1.00  0.00     0.014 C 
ENDBRANCH  12  19
ENDBRANCH  10  11
ENDBRANCH   1  10
BRANCH   3  21
ATOM     21  C   UNL     1      11.451  14.438 -14.116  1.00  0.00    -0.010 A 
ATOM     22  C   UNL     1      10.791  14.056 -12.937  1.00  0.00     0.052 A 
ATOM     23  C   UNL     1      12.604  15.255 -14.043  1.00  0.00    -0.036 A 
ATOM     24  C   UNL     1      11.270  14.483 -11.706  1.00  0.00     0.165 A 
ATOM     25  C   UNL     1      13.071  15.668 -12.780  1.00  0.00     0.053 A 
ATOM     26  C   UNL     1      12.402  15.283 -11.626  1.00  0.00     0.151 A 
ATOM     27  F   UNL     1      10.639  14.117 -10.581  1.00  0.00    -0.203 F 
BRANCH  23  28
ATOM     28  C   UNL     1      13.384  15.685 -15.267  1.00  0.00     0.033 C 
ATOM     29  C   UNL     1      14.667  16.415 -14.900  1.00  0.00     0.009 C 
ENDBRANCH  23  28
BRANCH  26  30
ATOM     30  O   UNL     1      12.883  15.704 -10.420  1.00  0.00    -0.505 OA
ATOM     31  H   UNL     1      13.648  15.138 -10.204  1.00  0.00     0.293 HD
ENDBRANCH  26  30
ENDBRANCH   3  21
TORSDOF 6
ENDMDL
MODEL 2
REMARK VINA RESULT:      -8.9      3.940      6.335
REMARK SMILES C=CC(=O)N1CCC(Oc2cc(-c3cc(F)c(O)cc3CC)cn3cncc23)CC1
REMARK SMILES IDX 10 1 11 2 12 3 23 4 24 5 25 6 26 7 27 8 28 9 9 10 8 11 3 12
REMARK SMILES IDX 4 13 5 14 6 15 30 16 7 17 29 18 2 19 1 20 13 21 14 22 20 23
REMARK SMILES IDX 15 24 19 25 17 26 16 27 21 28 22 29 18 30
REMARK H PARENT 18 31
ROOT
ATOM      1  C   UNL     1      14.002  15.781 -14.873  1.00  0.00     0.146 A 
ATOM      2  C   UNL     1      13.148  15.219 -15.759  1.00  0.00     0.059 A 
ATOM      3  C   UNL     1      11.882  14.605 -15.344  1.00  0.00     0.002 A 
ATOM      4  C   UNL     1      11.565  14.625 -14.034  1.00  0.00     0.101 A 
ATOM      5  N   UNL     1      12.446  15.207 -13.130  1.00  0.00    -0.302 N 
ATOM      6  C   UNL     1      12.347  15.341 -11.767  1.00  0.00     0.204 A 
ATOM      7  N   UNL     1      13.390  15.952 -11.249  1.00  0.00    -0.244 NA
ATOM      8  C   UNL     1      14.206  16.233 -12.318  1.00  0.00     0.143 A 
ATOM      9  C   UNL     1      13.650  15.784 -13.495  1.00  0.00     0.107 A 
ENDROOT
BRANCH   1  10
ATOM     10  O   UNL     1      15.209  16.380 -15.126  1.00  0.00    -0.488 OA
BRANCH  10  11
ATOM     11  C   UNL     1      15.396  17.126 -16.336  1.00  0.00     0.177 C 
ATOM     12  C   UNL     1      18.825  18.278 -18.726  1.00  0.00     0.245 C 
ATOM     13  O   UNL     1      19.796  18.855 -18.241  1.00  0.00    -0.270 OA
ATOM     14  N   UNL     1      17.723  17.870 -17.991  1.00  0.00    -0.339 N 
ATOM     15  C   UNL     1      17.679  18.223 -16.574  1.00  0.00     0.123 C 
ATOM     16  C   UNL     1      16.713  16.929 -18.477  1.00  0.00     0.123 C 
ATOM     17  C   UNL     1      16.244  18.380 -16.081  1.00  0.00     0.067 C 
ATOM     18  C   UNL     1      16.050  16.169 -17.339  1.00  0.00     0.067 C 
BRANCH  12  19
ATOM     19  C   UNL     1      18.845  17.973 -20.177  1.00  0.00     0.063 C 
ATOM     20  C   UNL     1      19.835  18.389 -20.979  1.00  0.00     0.014 C 
ENDBRANCH  12  19
ENDBRANCH  10  11
ENDBRANCH   1  10
BRANCH   3  21
ATOM     21  C   UNL     1      10.940  13.987 -16.295  1.00  0.00    -0.010 A 
ATOM     22  C   UNL     1       9.881  14.778 -16.768  1.00  0.00     0.052 A 
ATOM     23  C   UNL     1      11.079  12.653 -16.745  1.00  0.00    -0.036 A 
ATOM     24  C   UNL     1       8.972  14.247 -17.674  1.00  0.00     0.165 A 
ATOM     25  C   UNL     1      10.145  12.143 -17.669  1.00  0.00     0.053 A 
ATOM     26  C   UNL     1       9.102  12.939 -18.122  1.00  0.00     0.151 A 
ATOM     27  F   UNL     1       7.961  15.003 -18.126  1.00  0.00    -0.203 F 
BRANCH  23  28
ATOM     28  C   UNL     1      12.209  11.750 -16.301  1.00  0.00     0.033 C 
ATOM     29  C   UNL     1      11.740  10.691 -15.314  1.00  0.00     0.009 C 
ENDBRANCH  23  28
BRANCH  26  30
ATOM     30  O   UNL     1       8.216  12.410 -19.016  1.00  0.00    -0.505 OA
ATOM     31  H   UNL     1       7.621  11.821 -18.513  1.00  0.00     0.293 HD
ENDBRANCH  26  30
ENDBRANCH   3  21
TORSDOF 6
ENDMDL
MODEL 3
REMARK VINA RESULT:      -8.8      1.424      2.191
REMARK SMILES C=CC(=O)N1CCC(Oc2cc(-c3cc(F)c(O)cc3CC)cn3cncc23)CC1
REMARK SMILES IDX 10 1 11 2 12 3 23 4 24 5 25 6 26 7 27 8 28 9 9 10 8 11 3 12
REMARK SMILES IDX 4 13 5 14 6 15 30 16 7 17 29 18 2 19 1 20 13 21 14 22 20 23
REMARK SMILES IDX 15 24 19 25 17 26 16 27 21 28 22 29 18 30
REMARK H PARENT 18 31
ROOT
ATOM      1  C   UNL     1      11.359  13.161 -18.144  1.00  0.00     0.146 A 
ATOM      2  C   UNL     1      12.036  13.669 -17.088  1.00  0.00     0.059 A 
ATOM      3  C   UNL     1      11.353  14.186 -15.896  1.00  0.00     0.002 A 
ATOM      4  C   UNL     1      10.007  14.134 -15.862  1.00  0.00     0.101 A 
ATOM      5  N   UNL     1       9.318  13.608 -16.949  1.00  0.00    -0.302 N 
ATOM      6  C   UNL     1       7.968  13.457 -17.146  1.00  0.00     0.204 A 
ATOM      7  N   UNL     1       7.692  12.918 -18.314  1.00  0.00    -0.244 NA
ATOM      8  C   UNL     1       8.913  12.705 -18.906  1.00  0.00     0.143 A 
ATOM      9  C   UNL     1       9.939  13.122 -18.088  1.00  0.00     0.107 A 
ENDROOT
BRANCH   1  10
ATOM     10  O   UNL     1      11.870  12.653 -19.310  1.00  0.00    -0.488 OA
BRANCH  10  11
ATOM     11  C   UNL     1      13.030  13.253 -19.902  1.00  0.00     0.177 C 
ATOM     12  C   UNL     1      13.992  14.849 -23.816  1.00  0.00     0.245 C 
ATOM     13  O   UNL     1      13.823  14.201 -24.847  1.00  0.00    -0.270 OA
ATOM     14  N   UNL     1      13.672  14.385 -22.551  1.00  0.00    -0.339 N 
ATOM     15  C   UNL     1      13.185  13.012 -22.429  1.00  0.00     0.123 C 
ATOM     16  C   UNL     1      13.578  15.234 -21.362  1.00  0.00     0.123 C 
ATOM     17  C   UNL     1      13.545  12.409 -21.076  1.00  0.00     0.067 C 
ATOM     18  C   UNL     1      12.616  14.665 -20.332  1.00  0.00     0.067 C 
BRANCH  12  19
ATOM     19  C   UNL     1      14.542  16.221 -23.936  1.00  0.00     0.063 C 
ATOM     20  C   UNL     1      15.860  16.459 -23.976  1.00  0.00     0.014 C 
ENDBRANCH  12  19
ENDBRANCH  10  11
ENDBRANCH   1  10
BRANCH   3  21
ATOM     21  C   UNL     1      12.074  14.743 -14.737  1.00  0.00    -0.010 A 
ATOM     22  C   UNL     1      13.241  15.481 -14.990  1.00  0.00     0.052 A 
ATOM     23  C   UNL     1      11.625  14.570 -13.407  1.00  0.00    -0.036 A 
ATOM     24  C   UNL     1      13.951  16.036 -13.934  1.00  0.00     0.165 A 
ATOM     25  C   UNL     1      12.362  15.150 -12.356  1.00  0.00     0.053 A 
ATOM     26  C   UNL     1      13.516  15.873 -12.625  1.00  0.00     0.151 A 
ATOM     27  F   UNL     1      15.065  16.741 -14.176  1.00  0.00    -0.203 F 
BRANCH  23  28
ATOM     28  C   UNL     1      10.362  13.811 -13.059  1.00  0.00     0.033 C 
ATOM     29  C   UNL     1      10.120  13.763 -11.557  1.00  0.00     0.009 C 
ENDBRANCH  23  28
BRANCH  26  30
ATOM     30  O   UNL     1      14.205  16.419 -11.581  1.00  0.00    -0.505 OA
ATOM     31  H   UNL     1      13.545  16.707 -10.923  1.00  0.00     0.293 HD
ENDBRANCH  26  30
ENDBRANCH   3  21
TORSDOF 6
ENDMDL
MODEL 4
REMARK VINA RESULT:      -8.8      3.566      5.139
REMARK SMILES C=CC(=O)N1CCC(Oc2cc(-c3cc(F)c(O)cc3CC)cn3cncc23)CC1
REMARK SMILES IDX 10 1 11 2 12 3 23 4 24 5 25 6 26 7 27 8 28 9 9 10 8 11 3 12
REMARK SMILES IDX 4 13 5 14 6 15 30 16 7 17 29 18 2 19 1 20 13 21 14 22 20 23
REMARK SMILES IDX 15 24 19 25 17 26 16 27 21 28 22 29 18 30
REMARK H PARENT 18 31
ROOT
ATOM      1  C   UNL     1      14.389  14.681 -17.343  1.00  0.00     0.146 A 
ATOM      2  C   UNL     1      13.853  14.696 -16.101  1.00  0.00     0.059 A 
ATOM      3  C   UNL     1      12.410  14.566 -15.869  1.00  0.00     0.002 A 
ATOM      4  C   UNL     1      11.605  14.412 -16.939  1.00  0.00     0.101 A 
ATOM      5  N   UNL     1      12.162  14.395 -18.213  1.00  0.00    -0.302 N 
ATOM      6  C   UNL     1      11.556  14.258 -19.437  1.00  0.00     0.204 A 
ATOM      7  N   UNL     1      12.420  14.293 -20.428  1.00  0.00    -0.244 NA
ATOM      8  C   UNL     1      13.645  14.456 -19.827  1.00  0.00     0.143 A 
ATOM      9  C   UNL     1      13.519  14.524 -18.458  1.00  0.00     0.107 A 
ENDROOT
BRANCH   1  10
ATOM     10  O   UNL     1      15.708  14.795 -17.696  1.00  0.00    -0.488 OA
BRANCH  10  11
ATOM     11  C   UNL     1      16.246  16.080 -18.036  1.00  0.00     0.177 C 
ATOM     12  C   UNL     1      18.629  19.048 -15.960  1.00  0.00     0.245 C 
ATOM     13  O   UNL     1      18.307  19.493 -14.861  1.00  0.00    -0.270 OA
ATOM     14  N   UNL     1      17.909  18.080 -16.642  1.00  0.00    -0.339 N 
ATOM     15  C   UNL     1      16.650  17.626 -16.057  1.00  0.00     0.123 C 
ATOM     16  C   UNL     1      18.424  17.326 -17.787  1.00  0.00     0.123 C 
ATOM     17  C   UNL     1      15.665  17.175 -17.130  1.00  0.00     0.067 C 
ATOM     18  C   UNL     1      17.769  15.959 -17.907  1.00  0.00     0.067 C 
BRANCH  12  19
ATOM     19  C   UNL     1      19.878  19.553 -16.581  1.00  0.00     0.063 C 
ATOM     20  C   UNL     1      20.273  20.826 -16.452  1.00  0.00     0.014 C 
ENDBRANCH  12  19
ENDBRANCH  10  11
ENDBRANCH   1  10
BRANCH   3  21
ATOM     21  C   UNL     1      11.809  14.581 -14.523  1.00  0.00    -0.010 A 
ATOM     22  C   UNL     1      10.626  13.850 -14.330  1.00  0.00     0.052 A 
ATOM     23  C   UNL     1      12.386  15.285 -13.439  1.00  0.00    -0.036 A 
ATOM     24  C   UNL     1      10.026  13.822 -13.079  1.00  0.00     0.165 A 
ATOM     25  C   UNL     1      11.758  15.234 -12.180  1.00  0.00     0.053 A 
ATOM     26  C   UNL     1      10.586  14.508 -12.010  1.00  0.00     0.151 A 
ATOM     27  F   UNL     1       8.896  13.123 -12.896  1.00  0.00    -0.203 F 
BRANCH  23  28
ATOM     28  C   UNL     1      13.673  16.072 -13.564  1.00  0.00     0.033 C 
ATOM     29  C   UNL     1      14.356  16.267 -12.219  1.00  0.00     0.009 C 
ENDBRANCH  23  28
BRANCH  26  30
ATOM     30  O   UNL     1      10.005  14.484 -10.775  1.00  0.00    -0.505 OA
ATOM     31  H   UNL     1       9.779  13.554 -10.585  1.00  0.00     0.293 HD
ENDBRANCH  26  30
ENDBRANCH   3  21
TORSDOF 6
ENDMDL
MODEL 5
REMARK VINA RESULT:      -8.6      3.591      5.359
REMARK SMILES C=CC(=O)N1CCC(Oc2cc(-c3cc(F)c(O)cc3CC)cn3cncc23)CC1
REMARK SMILES IDX 10 1 11 2 12 3 23 4 24 5 25 6 26 7 27 8 28 9 9 10 8 11 3 12
REMARK SMILES IDX 4 13 5 14 6 15 30 16 7 17 29 18 2 19 1 20 13 21 14 22 20 23
REMARK SMILES IDX 15 24 19 25 17 26 16 27 21 28 22 29 18 30
REMARK H PARENT 18 31
ROOT
ATOM      1  C   UNL     1      14.420  14.704 -17.151  1.00  0.00     0.146 A 
ATOM      2  C   UNL     1      13.944  14.664 -15.885  1.00  0.00     0.059 A 
ATOM      3  C   UNL     1      12.516  14.495 -15.591  1.00  0.00     0.002 A 
ATOM      4  C   UNL     1      11.665  14.362 -16.627  1.00  0.00     0.101 A 
ATOM      5  N   UNL     1      12.161  14.401 -17.925  1.00  0.00    -0.302 N 
ATOM      6  C   UNL     1      11.500  14.294 -19.123  1.00  0.00     0.204 A 
ATOM      7  N   UNL     1      12.315  14.382 -20.151  1.00  0.00    -0.244 NA
ATOM      8  C   UNL     1      13.564  14.551 -19.604  1.00  0.00     0.143 A 
ATOM      9  C   UNL     1      13.502  14.568 -18.228  1.00  0.00     0.107 A 
ENDROOT
BRANCH   1  10
ATOM     10  O   UNL     1      15.718  14.859 -17.561  1.00  0.00    -0.488 OA
BRANCH  10  11
ATOM     11  C   UNL     1      16.197  16.157 -17.939  1.00  0.00     0.177 C 
ATOM     12  C   UNL     1      18.725  19.150 -16.081  1.00  0.00     0.245 C 
ATOM     13  O   UNL     1      18.508  19.578 -14.950  1.00  0.00    -0.270 OA
ATOM     14  N   UNL     1      17.956  18.176 -16.698  1.00  0.00    -0.339 N 
ATOM     15  C   UNL     1      16.771  17.692 -15.993  1.00  0.00     0.123 C 
ATOM     16  C   UNL     1      18.365  17.442 -17.897  1.00  0.00     0.123 C 
ATOM     17  C   UNL     1      15.691  17.232 -16.966  1.00  0.00     0.067 C 
ATOM     18  C   UNL     1      17.727  16.064 -17.966  1.00  0.00     0.067 C 
BRANCH  12  19
ATOM     19  C   UNL     1      19.895  19.684 -16.819  1.00  0.00     0.063 C 
ATOM     20  C   UNL     1      20.876  20.359 -16.207  1.00  0.00     0.014 C 
ENDBRANCH  12  19
ENDBRANCH  10  11
ENDBRANCH   1  10
BRANCH   3  21
ATOM     21  C   UNL     1      11.980  14.450 -14.218  1.00  0.00    -0.010 A 
ATOM     22  C   UNL     1      12.613  15.241 -13.246  1.00  0.00     0.052 A 
ATOM     23  C   UNL     1      10.861  13.660 -13.864  1.00  0.00    -0.036 A 
ATOM     24  C   UNL     1      12.140  15.243 -11.941  1.00  0.00     0.165 A 
ATOM     25  C   UNL     1      10.400  13.687 -12.533  1.00  0.00     0.053 A 
ATOM     26  C   UNL     1      11.041  14.473 -11.585  1.00  0.00     0.151 A 
ATOM     27  F   UNL     1      12.745  15.999 -11.013  1.00  0.00    -0.203 F 
BRANCH  23  28
ATOM     28  C   UNL     1      10.111  12.804 -14.862  1.00  0.00     0.033 C 
ATOM     29  C   UNL     1       8.622  13.114 -14.876  1.00  0.00     0.009 C 
ENDBRANCH  23  28
BRANCH  26  30
ATOM     30  O   UNL     1      10.567  14.471 -10.305  1.00  0.00    -0.505 OA
ATOM     31  H   UNL     1      10.589  15.396  -9.992  1.00  0.00     0.293 HD
ENDBRANCH  26  30
ENDBRANCH   3  21
TORSDOF 6
ENDMDL
MODEL 6
REMARK VINA RESULT:      -8.6      1.781      2.357
REMARK SMILES C=CC(=O)N1CCC(Oc2cc(-c3cc(F)c(O)cc3CC)cn3cncc23)CC1
REMARK SMILES IDX 10 1 11 2 12 3 23 4 24 5 25 6 26 7 27 8 28 9 9 10 8 11 3 12
REMARK SMILES IDX 4 13 5 14 6 15 30 16 7 17 29 18 2 19 1 20 13 21 14 22 20 23
REMARK SMILES IDX 15 24 19 25 17 26 16 27 21 28 22 29 18 30
REMARK H PARENT 18 31
ROOT
ATOM      1  C   UNL     1      10.792  12.755 -17.711  1.00  0.00     0.146 A 
ATOM      2  C   UNL     1      11.409  13.254 -16.616  1.00  0.00     0.059 A 
ATOM      3  C   UNL     1      10.669  13.900 -15.526  1.00  0.00     0.002 A 
ATOM      4  C   UNL     1       9.327  13.977 -15.627  1.00  0.00     0.101 A 
ATOM      5  N   UNL     1       8.699  13.459 -16.754  1.00  0.00    -0.302 N 
ATOM      6  C   UNL     1       7.366  13.425 -17.081  1.00  0.00     0.204 A 
ATOM      7  N   UNL     1       7.153  12.850 -18.244  1.00  0.00    -0.244 NA
ATOM      8  C   UNL     1       8.398  12.489 -18.697  1.00  0.00     0.143 A 
ATOM      9  C   UNL     1       9.376  12.853 -17.799  1.00  0.00     0.107 A 
ENDROOT
BRANCH   1  10
ATOM     10  O   UNL     1      11.361  12.136 -18.793  1.00  0.00    -0.488 OA
BRANCH  10  11
ATOM     11  C   UNL     1      11.378  12.797 -20.065  1.00  0.00     0.177 C 
ATOM     12  C   UNL     1      13.278  12.035 -23.888  1.00  0.00     0.245 C 
ATOM     13  O   UNL     1      14.487  11.844 -23.990  1.00  0.00    -0.270 OA
ATOM     14  N   UNL     1      12.631  12.255 -22.682  1.00  0.00    -0.339 N 
ATOM     15  C   UNL     1      13.448  12.348 -21.475  1.00  0.00     0.123 C 
ATOM     16  C   UNL     1      11.179  12.182 -22.502  1.00  0.00     0.123 C 
ATOM     17  C   UNL     1      12.800  13.249 -20.429  1.00  0.00     0.067 C 
ATOM     18  C   UNL     1      10.802  11.802 -21.079  1.00  0.00     0.067 C 
BRANCH  12  19
ATOM     19  C   UNL     1      12.456  11.999 -25.122  1.00  0.00     0.063 C 
ATOM     20  C   UNL     1      12.084  10.848 -25.696  1.00  0.00     0.014 C 
ENDBRANCH  12  19
ENDBRANCH  10  11
ENDBRANCH   1  10
BRANCH   3  21
ATOM     21  C   UNL     1      11.325  14.451 -14.326  1.00  0.00    -0.010 A 
ATOM     22  C   UNL     1      10.764  14.139 -13.077  1.00  0.00     0.052 A 
ATOM     23  C   UNL     1      12.487  15.254 -14.395  1.00  0.00    -0.036 A 
ATOM     24  C   UNL     1      11.349  14.623 -11.916  1.00  0.00     0.165 A 
ATOM     25  C   UNL     1      13.063  15.727 -13.199  1.00  0.00     0.053 A 
ATOM     26  C   UNL     1      12.491  15.411 -11.974  1.00  0.00     0.151 A 
ATOM     27  F   UNL     1      10.813  14.325 -10.723  1.00  0.00    -0.203 F 
BRANCH  23  28
ATOM     28  C   UNL     1      13.163  15.609 -15.701  1.00  0.00     0.033 C 
ATOM     29  C   UNL     1      14.569  16.150 -15.489  1.00  0.00     0.009 C 
ENDBRANCH  23  28
BRANCH  26  30
ATOM     30  O   UNL     1      13.076  15.889 -10.836  1.00  0.00    -0.505 OA
ATOM     31  H   UNL     1      13.953  15.465 -10.767  1.00  0.00     0.293 HD
ENDBRANCH  26  30
ENDBRANCH   3  21
TORSDOF 6
ENDMDL
MODEL 7
REMARK VINA RESULT:      -8.2      2.310      2.729
REMARK SMILES C=CC(=O)N1CCC(Oc2cc(-c3cc(F)c(O)cc3CC)cn3cncc23)CC1
REMARK SMILES IDX 10 1 11 2 12 3 23 4 24 5 25 6 26 7 27 8 28 9 9 10 8 11 3 12
REMARK SMILES IDX 4 13 5 14 6 15 30 16 7 17 29 18 2 19 1 20 13 21 14 22 20 23
REMARK SMILES IDX 15 24 19 25 17 26 16 27 21 28 22 29 18 30
REMARK H PARENT 18 31
ROOT
ATOM      1  C   UNL     1      11.668  14.468 -17.846  1.00  0.00     0.146 A 
ATOM      2  C   UNL     1      12.012  14.785 -16.577  1.00  0.00     0.059 A 
ATOM      3  C   UNL     1      11.291  14.253 -15.415  1.00  0.00     0.002 A 
ATOM      4  C   UNL     1      10.262  13.410 -15.636  1.00  0.00     0.101 A 
ATOM      5  N   UNL     1       9.916  13.087 -16.943  1.00  0.00    -0.302 N 
ATOM      6  C   UNL     1       8.919  12.268 -17.412  1.00  0.00     0.204 A 
ATOM      7  N   UNL     1       8.899  12.211 -18.726  1.00  0.00    -0.244 NA
ATOM      8  C   UNL     1       9.927  13.024 -19.134  1.00  0.00     0.143 A 
ATOM      9  C   UNL     1      10.575  13.582 -18.055  1.00  0.00     0.107 A 
ENDROOT
BRANCH   1  10
ATOM     10  O   UNL     1      12.250  14.895 -19.011  1.00  0.00    -0.488 OA
BRANCH  10  11
ATOM     11  C   UNL     1      13.656  14.702 -19.218  1.00  0.00     0.177 C 
ATOM     12  C   UNL     1      17.140  17.283 -19.177  1.00  0.00     0.245 C 
ATOM     13  O   UNL     1      17.200  18.311 -19.847  1.00  0.00    -0.270 OA
ATOM     14  N   UNL     1      16.035  16.447 -19.143  1.00  0.00    -0.339 N 
ATOM     15  C   UNL     1      14.911  16.765 -20.020  1.00  0.00     0.123 C 
ATOM     16  C   UNL     1      15.824  15.403 -18.138  1.00  0.00     0.123 C 
ATOM     17  C   UNL     1      14.148  15.509 -20.428  1.00  0.00     0.067 C 
ATOM     18  C   UNL     1      14.347  15.120 -17.914  1.00  0.00     0.067 C 
BRANCH  12  19
ATOM     19  C   UNL     1      18.306  16.930 -18.331  1.00  0.00     0.063 C 
ATOM     20  C   UNL     1      18.626  17.627 -17.232  1.00  0.00     0.014 C 
ENDBRANCH  12  19
ENDBRANCH  10  11
ENDBRANCH   1  10
BRANCH   3  21
ATOM     21  C   UNL     1      11.651  14.588 -14.025  1.00  0.00    -0.010 A 
ATOM     22  C   UNL     1      10.812  14.115 -13.003  1.00  0.00     0.052 A 
ATOM     23  C   UNL     1      12.801  15.343 -13.697  1.00  0.00    -0.036 A 
ATOM     24  C   UNL     1      11.112  14.393 -11.677  1.00  0.00     0.165 A 
ATOM     25  C   UNL     1      13.084  15.605 -12.342  1.00  0.00     0.053 A 
ATOM     26  C   UNL     1      12.240  15.132 -11.347  1.00  0.00     0.151 A 
ATOM     27  F   UNL     1      10.310  13.940 -10.702  1.00  0.00    -0.203 F 
BRANCH  23  28
ATOM     28  C   UNL     1      13.766  15.863 -14.741  1.00  0.00     0.033 C 
ATOM     29  C   UNL     1      14.917  16.640 -14.119  1.00  0.00     0.009 C 
ENDBRANCH  23  28
BRANCH  26  30
ATOM     30  O   UNL     1      12.546  15.407 -10.045  1.00  0.00    -0.505 OA
ATOM     31  H   UNL     1      13.380  14.941  -9.843  1.00  0.00     0.293 HD
ENDBRANCH  26  30
ENDBRANCH   3  21
TORSDOF 6
ENDMDL
MODEL 8
REMARK VINA RESULT:      -7.6     28.115     31.064
REMARK SMILES C=CC(=O)N1CCC(Oc2cc(-c3cc(F)c(O)cc3CC)cn3cncc23)CC1
REMARK SMILES IDX 10 1 11 2 12 3 23 4 24 5 25 6 26 7 27 8 28 9 9 10 8 11 3 12
REMARK SMILES IDX 4 13 5 14 6 15 30 16 7 17 29 18 2 19 1 20 13 21 14 22 20 23
REMARK SMILES IDX 15 24 19 25 17 26 16 27 21 28 22 29 18 30
REMARK H PARENT 18 31
ROOT
ATOM      1  C   UNL     1       3.609 -12.837 -14.551  1.00  0.00     0.146 A 
ATOM      2  C   UNL     1       2.901 -13.700 -15.315  1.00  0.00     0.059 A 
ATOM      3  C   UNL     1       3.541 -14.785 -16.068  1.00  0.00     0.002 A 
ATOM      4  C   UNL     1       4.878 -14.923 -15.972  1.00  0.00     0.101 A 
ATOM      5  N   UNL     1       5.599 -14.035 -15.182  1.00  0.00    -0.302 N 
ATOM      6  C   UNL     1       6.948 -13.971 -14.936  1.00  0.00     0.204 A 
ATOM      7  N   UNL     1       7.261 -12.979 -14.131  1.00  0.00    -0.244 NA
ATOM      8  C   UNL     1       6.067 -12.370 -13.834  1.00  0.00     0.143 A 
ATOM      9  C   UNL     1       5.020 -12.998 -14.470  1.00  0.00     0.107 A 
ENDROOT
BRANCH   1  10
ATOM     10  O   UNL     1       3.140 -11.786 -13.807  1.00  0.00    -0.488 OA
BRANCH  10  11
ATOM     11  C   UNL     1       1.914 -11.921 -13.076  1.00  0.00     0.177 C 
ATOM     12  C   UNL     1       0.463 -10.511  -9.241  1.00  0.00     0.245 C 
ATOM     13  O   UNL     1       1.085 -10.698  -8.198  1.00  0.00    -0.270 OA
ATOM     14  N   UNL     1       0.906 -10.922 -10.488  1.00  0.00    -0.339 N 
ATOM     15  C   UNL     1       2.143 -11.696 -10.553  1.00  0.00     0.123 C 
ATOM     16  C   UNL     1       0.345 -10.453 -11.757  1.00  0.00     0.123 C 
ATOM     17  C   UNL     1       2.147 -12.648 -11.743  1.00  0.00     0.067 C 
ATOM     18  C   UNL     1       1.366 -10.502 -12.882  1.00  0.00     0.067 C 
BRANCH  12  19
ATOM     19  C   UNL     1      -0.824  -9.777  -9.167  1.00  0.00     0.063 C 
ATOM     20  C   UNL     1      -1.925 -10.322  -8.634  1.00  0.00     0.014 C 
ENDBRANCH  12  19
ENDBRANCH  10  11
ENDBRANCH   1  10
BRANCH   3  21
ATOM     21  C   UNL     1       2.786 -15.734 -16.906  1.00  0.00    -0.010 A 
ATOM     22  C   UNL     1       2.538 -15.370 -18.239  1.00  0.00     0.052 A 
ATOM     23  C   UNL     1       2.325 -16.980 -16.420  1.00  0.00    -0.036 A 
ATOM     24  C   UNL     1       1.841 -16.232 -19.074  1.00  0.00     0.165 A 
ATOM     25  C   UNL     1       1.626 -17.838 -17.291  1.00  0.00     0.053 A 
ATOM     26  C   UNL     1       1.388 -17.458 -18.605  1.00  0.00     0.151 A 
ATOM     27  F   UNL     1       1.605 -15.884 -20.347  1.00  0.00    -0.203 F 
BRANCH  23  28
ATOM     28  C   UNL     1       2.577 -17.452 -15.004  1.00  0.00     0.033 C 
ATOM     29  C   UNL     1       3.794 -18.360 -14.912  1.00  0.00     0.009 C 
ENDBRANCH  23  28
BRANCH  26  30
ATOM     30  O   UNL     1       0.705 -18.315 -19.420  1.00  0.00    -0.505 OA
ATOM     31  H   UNL     1       1.341 -18.990 -19.723  1.00  0.00     0.293 HD
ENDBRANCH  26  30
ENDBRANCH   3  21
TORSDOF 6
ENDMDL
MODEL 9
REMARK VINA RESULT:      -7.5      3.592      8.240
REMARK SMILES C=CC(=O)N1CCC(Oc2cc(-c3cc(F)c(O)cc3CC)cn3cncc23)CC1
REMARK SMILES IDX 10 1 11 2 12 3 23 4 24 5 25 6 26 7 27 8 28 9 9 10 8 11 3 12
REMARK SMILES IDX 4 13 5 14 6 15 30 16 7 17 29 18 2 19 1 20 13 21 14 22 20 23
REMARK SMILES IDX 15 24 19 25 17 26 16 27 21 28 22 29 18 30
REMARK H PARENT 18 31
ROOT
ATOM      1  C   UNL     1       9.333  12.434 -19.028  1.00  0.00     0.146 A 
ATOM      2  C   UNL     1      10.374  12.723 -19.843  1.00  0.00     0.059 A 
ATOM      3  C   UNL     1      10.540  12.090 -21.156  1.00  0.00     0.002 A 
ATOM      4  C   UNL     1       9.608  11.202 -21.556  1.00  0.00     0.101 A 
ATOM      5  N   UNL     1       8.540  10.912 -20.715  1.00  0.00    -0.302 N 
ATOM      6  C   UNL     1       7.485  10.053 -20.898  1.00  0.00     0.204 A 
ATOM      7  N   UNL     1       6.666  10.043 -19.869  1.00  0.00    -0.244 NA
ATOM      8  C   UNL     1       7.205  10.937 -18.976  1.00  0.00     0.143 A 
ATOM      9  C   UNL     1       8.365  11.490 -19.469  1.00  0.00     0.107 A 
ENDROOT
BRANCH   1  10
ATOM     10  O   UNL     1       9.064  12.947 -17.786  1.00  0.00    -0.488 OA
BRANCH  10  11
ATOM     11  C   UNL     1       9.969  12.702 -16.701  1.00  0.00     0.177 C 
ATOM     12  C   UNL     1      11.841  15.158 -13.659  1.00  0.00     0.245 C 
ATOM     13  O   UNL     1      12.478  16.171 -13.937  1.00  0.00    -0.270 OA
ATOM     14  N   UNL     1      11.207  14.362 -14.599  1.00  0.00    -0.339 N 
ATOM     15  C   UNL     1      11.376  14.704 -16.010  1.00  0.00     0.123 C 
ATOM     16  C   UNL     1      10.206  13.344 -14.275  1.00  0.00     0.123 C 
ATOM     17  C   UNL     1      11.284  13.469 -16.899  1.00  0.00     0.067 C 
ATOM     18  C   UNL     1       9.234  13.117 -15.422  1.00  0.00     0.067 C 
BRANCH  12  19
ATOM     19  C   UNL     1      11.719  14.778 -12.230  1.00  0.00     0.063 C 
ATOM     20  C   UNL     1      12.619  15.157 -11.313  1.00  0.00     0.014 C 
ENDBRANCH  12  19
ENDBRANCH  10  11
ENDBRANCH   1  10
BRANCH   3  21
ATOM     21  C   UNL     1      11.668  12.392 -22.055  1.00  0.00    -0.010 A 
ATOM     22  C   UNL     1      11.675  11.779 -23.318  1.00  0.00     0.052 A 
ATOM     23  C   UNL     1      12.714  13.275 -21.696  1.00  0.00    -0.036 A 
ATOM     24  C   UNL     1      12.709  12.039 -24.208  1.00  0.00     0.165 A 
ATOM     25  C   UNL     1      13.746  13.525 -22.621  1.00  0.00     0.053 A 
ATOM     26  C   UNL     1      13.738  12.906 -23.864  1.00  0.00     0.151 A 
ATOM     27  F   UNL     1      12.715  11.453 -25.414  1.00  0.00    -0.203 F 
BRANCH  23  28
ATOM     28  C   UNL     1      12.760  13.994 -20.364  1.00  0.00     0.033 C 
ATOM     29  C   UNL     1      13.651  15.226 -20.410  1.00  0.00     0.009 C 
ENDBRANCH  23  28
BRANCH  26  30
ATOM     30  O   UNL     1      14.756  13.170 -24.734  1.00  0.00    -0.505 OA
ATOM     31  H   UNL     1      15.420  13.692 -24.245  1.00  0.00     0.293 HD
ENDBRANCH  26  30
ENDBRANCH   3  21
TORSDOF 6
ENDMDL
