MODEL 1
REMARK VINA RESULT:      -9.2      0.000      0.000
REMARK SMILES C=CC(=O)N1CC[C@@H](Oc2cc(-c3cc(F)c(O)cc3CC)cn3cncc23)C(F)(F)C1
REMARK SMILES IDX 10 1 11 2 12 3 23 4 24 5 25 6 26 7 27 8 28 9 9 10 8 11 5 12
REMARK SMILES IDX 6 13 32 14 7 15 29 16 30 17 31 18 3 19 4 20 2 21 1 22 13 23
REMARK SMILES IDX 14 24 20 25 15 26 19 27 17 28 16 29 21 30 22 31 18 32
REMARK H PARENT 18 33
ROOT
ATOM      1  C   UNL     1      11.981  15.274 -14.471  1.00  0.00     0.146 A 
ATOM      2  C   UNL     1      12.872  15.606 -15.425  1.00  0.00     0.059 A 
ATOM      3  C   UNL     1      14.207  16.113 -15.095  1.00  0.00     0.002 A 
ATOM      4  C   UNL     1      14.545  16.200 -13.791  1.00  0.00     0.101 A 
ATOM      5  N   UNL     1      13.628  15.815 -12.818  1.00  0.00    -0.302 N 
ATOM      6  C   UNL     1      13.748  15.805 -11.451  1.00  0.00     0.204 A 
ATOM      7  N   UNL     1      12.664  15.351 -10.860  1.00  0.00    -0.244 NA
ATOM      8  C   UNL     1      11.799  15.047 -11.881  1.00  0.00     0.143 A 
ATOM      9  C   UNL     1      12.356  15.343 -13.105  1.00  0.00     0.107 A 
ENDROOT
BRANCH   1  10
ATOM     10  O   UNL     1      10.737  14.769 -14.766  1.00  0.00    -0.482 OA
BRANCH  10  11
ATOM     11  C   UNL     1      10.718  13.322 -14.799  1.00  0.00     0.246 C 
ATOM     12  N   UNL     1      10.378  13.036 -17.651  1.00  0.00    -0.333 N 
ATOM     13  C   UNL     1      11.472  12.288 -17.039  1.00  0.00     0.124 C 
ATOM     14  C   UNL     1       9.190  13.253 -16.809  1.00  0.00     0.200 C 
ATOM     15  C   UNL     1      11.892  12.875 -15.689  1.00  0.00     0.073 C 
ATOM     16  C   UNL     1       9.380  12.832 -15.352  1.00  0.00     0.301 C 
ATOM     17  F   UNL     1       9.327  11.474 -15.258  1.00  0.00    -0.201 F 
ATOM     18  F   UNL     1       8.346  13.294 -14.602  1.00  0.00    -0.201 F 
BRANCH  12  19
ATOM     19  C   UNL     1      10.389  13.196 -19.032  1.00  0.00     0.246 C 
ATOM     20  O   UNL     1      10.463  14.296 -19.575  1.00  0.00    -0.270 OA
BRANCH  19  21
ATOM     21  C   UNL     1      10.300  11.958 -19.857  1.00  0.00     0.063 C 
ATOM     22  C   UNL     1      11.047  11.826 -20.962  1.00  0.00     0.014 C 
ENDBRANCH  19  21
ENDBRANCH  12  19
ENDBRANCH  10  11
ENDBRANCH   1  10
BRANCH   3  23
ATOM     23  C   UNL     1      15.191  16.510 -16.116  1.00  0.00    -0.010 A 
ATOM     24  C   UNL     1      15.931  17.684 -15.888  1.00  0.00     0.052 A 
ATOM     25  C   UNL     1      15.420  15.752 -17.289  1.00  0.00    -0.036 A 
ATOM     26  C   UNL     1      16.881  18.095 -16.812  1.00  0.00     0.165 A 
ATOM     27  C   UNL     1      16.394  16.191 -18.206  1.00  0.00     0.053 A 
ATOM     28  C   UNL     1      17.113  17.355 -17.964  1.00  0.00     0.151 A 
ATOM     29  F   UNL     1      17.584  19.215 -16.593  1.00  0.00    -0.203 F 
BRANCH  25  30
ATOM     30  C   UNL     1      14.680  14.466 -17.594  1.00  0.00     0.033 C 
ATOM     31  C   UNL     1      13.837  14.577 -18.856  1.00  0.00     0.009 C 
ENDBRANCH  25  30
BRANCH  28  32
ATOM     32  O   UNL     1      18.048  17.749 -18.878  1.00  0.00    -0.505 OA
ATOM     33  H   UNL     1      18.196  18.704 -18.739  1.00  0.00     0.293 HD
ENDBRANCH  28  32
ENDBRANCH   3  23
TORSDOF 7
ENDMDL
MODEL 2
REMARK VINA RESULT:      -8.7      3.070      8.070
REMARK SMILES C=CC(=O)N1CC[C@@H](Oc2cc(-c3cc(F)c(O)cc3CC)cn3cncc23)C(F)(F)C1
REMARK SMILES IDX 10 1 11 2 12 3 23 4 24 5 25 6 26 7 27 8 28 9 9 10 8 11 5 12
REMARK SMILES IDX 6 13 32 14 7 15 29 16 30 17 31 18 3 19 4 20 2 21 1 22 13 23
REMARK SMILES IDX 14 24 20 25 15 26 19 27 17 28 16 29 21 30 22 31 18 32
REMARK H PARENT 18 33
ROOT
ATOM      1  C   UNL     1      14.718  15.416 -16.992  1.00  0.00     0.146 A 
ATOM      2  C   UNL     1      14.201  15.287 -15.755  1.00  0.00     0.059 A 
ATOM      3  C   UNL     1      12.835  14.807 -15.533  1.00  0.00     0.002 A 
ATOM      4  C   UNL     1      12.108  14.449 -16.612  1.00  0.00     0.101 A 
ATOM      5  N   UNL     1      12.670  14.550 -17.881  1.00  0.00    -0.302 N 
ATOM      6  C   UNL     1      12.135  14.240 -19.106  1.00  0.00     0.204 A 
ATOM      7  N   UNL     1      12.985  14.453 -20.087  1.00  0.00    -0.244 NA
ATOM      8  C   UNL     1      14.125  14.919 -19.481  1.00  0.00     0.143 A 
ATOM      9  C   UNL     1      13.956  15.012 -18.118  1.00  0.00     0.107 A 
ENDROOT
BRANCH   1  10
ATOM     10  O   UNL     1      16.008  15.837 -17.214  1.00  0.00    -0.482 OA
BRANCH  10  11
ATOM     11  C   UNL     1      16.112  17.276 -17.328  1.00  0.00     0.246 C 
ATOM     12  N   UNL     1      18.925  17.381 -17.965  1.00  0.00    -0.333 N 
ATOM     13  C   UNL     1      18.019  18.099 -18.857  1.00  0.00     0.124 C 
ATOM     14  C   UNL     1      18.515  17.301 -16.554  1.00  0.00     0.200 C 
ATOM     15  C   UNL     1      16.582  17.583 -18.762  1.00  0.00     0.073 C 
ATOM     16  C   UNL     1      17.099  17.810 -16.291  1.00  0.00     0.301 C 
ATOM     17  F   UNL     1      17.089  19.173 -16.323  1.00  0.00    -0.201 F 
ATOM     18  F   UNL     1      16.714  17.469 -15.034  1.00  0.00    -0.201 F 
BRANCH  12  19
ATOM     19  C   UNL     1      20.215  17.124 -18.414  1.00  0.00     0.246 C 
ATOM     20  O   UNL     1      20.582  17.364 -19.562  1.00  0.00    -0.270 OA
BRANCH  19  21
ATOM     21  C   UNL     1      21.166  16.526 -17.433  1.00  0.00     0.063 C 
ATOM     22  C   UNL     1      22.128  15.690 -17.847  1.00  0.00     0.014 C 
ENDBRANCH  19  21
ENDBRANCH  12  19
ENDBRANCH  10  11
ENDBRANCH   1  10
BRANCH   3  23
ATOM     23  C   UNL     1      12.235  14.682 -14.194  1.00  0.00    -0.010 A 
ATOM     24  C   UNL     1      12.846  15.381 -13.137  1.00  0.00     0.052 A 
ATOM     25  C   UNL     1      11.076  13.908 -13.947  1.00  0.00    -0.036 A 
ATOM     26  C   UNL     1      12.312  15.307 -11.858  1.00  0.00     0.165 A 
ATOM     27  C   UNL     1      10.554  13.857 -12.640  1.00  0.00     0.053 A 
ATOM     28  C   UNL     1      11.174  14.552 -11.609  1.00  0.00     0.151 A 
ATOM     29  F   UNL     1      12.896  15.974 -10.852  1.00  0.00    -0.203 F 
BRANCH  25  30
ATOM     30  C   UNL     1      10.350  13.146 -15.036  1.00  0.00     0.033 C 
ATOM     31  C   UNL     1       8.862  13.012 -14.746  1.00  0.00     0.009 C 
ENDBRANCH  25  30
BRANCH  28  32
ATOM     32  O   UNL     1      10.638  14.477 -10.355  1.00  0.00    -0.505 OA
ATOM     33  H   UNL     1      10.042  15.244 -10.255  1.00  0.00     0.293 HD
ENDBRANCH  28  32
ENDBRANCH   3  23
TORSDOF 7
ENDMDL
MODEL 3
REMARK VINA RESULT:      -8.4      2.848      5.060
REMARK SMILES C=CC(=O)N1CC[C@@H](Oc2cc(-c3cc(F)c(O)cc3CC)cn3cncc23)C(F)(F)C1
REMARK SMILES IDX 10 1 11 2 12 3 23 4 24 5 25 6 26 7 27 8 28 9 9 10 8 11 5 12
REMARK SMILES IDX 6 13 32 14 7 15 29 16 30 17 31 18 3 19 4 20 2 21 1 22 13 23
REMARK SMILES IDX 14 24 20 25 15 26 19 27 17 28 16 29 21 30 22 31 18 32
REMARK H PARENT 18 33
ROOT
ATOM      1  C   UNL     1      14.264  14.886 -18.382  1.00  0.00     0.146 A 
ATOM      2  C   UNL     1      15.315  15.331 -17.666  1.00  0.00     0.059 A 
ATOM      3  C   UNL     1      16.296  16.262 -18.227  1.00  0.00     0.002 A 
ATOM      4  C   UNL     1      16.097  16.707 -19.486  1.00  0.00     0.101 A 
ATOM      5  N   UNL     1      14.985  16.269 -20.199  1.00  0.00    -0.302 N 
ATOM      6  C   UNL     1      14.574  16.587 -21.470  1.00  0.00     0.204 A 
ATOM      7  N   UNL     1      13.452  15.984 -21.795  1.00  0.00    -0.244 NA
ATOM      8  C   UNL     1      13.109  15.243 -20.691  1.00  0.00     0.143 A 
ATOM      9  C   UNL     1      14.048  15.380 -19.694  1.00  0.00     0.107 A 
ENDROOT
BRANCH   1  10
ATOM     10  O   UNL     1      13.319  14.035 -17.858  1.00  0.00    -0.482 OA
BRANCH  10  11
ATOM     11  C   UNL     1      13.491  13.821 -16.437  1.00  0.00     0.246 C 
ATOM     12  N   UNL     1      10.739  13.188 -15.838  1.00  0.00    -0.333 N 
ATOM     13  C   UNL     1      11.751  12.245 -15.369  1.00  0.00     0.124 C 
ATOM     14  C   UNL     1      11.150  14.600 -15.899  1.00  0.00     0.200 C 
ATOM     15  C   UNL     1      13.064  12.371 -16.143  1.00  0.00     0.073 C 
ATOM     16  C   UNL     1      12.641  14.822 -15.654  1.00  0.00     0.301 C 
ATOM     17  F   UNL     1      12.910  14.695 -14.324  1.00  0.00    -0.201 F 
ATOM     18  F   UNL     1      12.975  16.098 -15.976  1.00  0.00    -0.201 F 
BRANCH  12  19
ATOM     19  C   UNL     1       9.416  12.763 -15.873  1.00  0.00     0.246 C 
ATOM     20  O   UNL     1       8.688  12.770 -14.883  1.00  0.00    -0.270 OA
BRANCH  19  21
ATOM     21  C   UNL     1       8.895  12.279 -17.183  1.00  0.00     0.063 C 
ATOM     22  C   UNL     1       8.027  13.023 -17.883  1.00  0.00     0.014 C 
ENDBRANCH  19  21
ENDBRANCH  12  19
ENDBRANCH  10  11
ENDBRANCH   1  10
BRANCH   3  23
ATOM     23  C   UNL     1      17.468  16.744 -17.478  1.00  0.00    -0.010 A 
ATOM     24  C   UNL     1      18.741  16.466 -18.008  1.00  0.00     0.052 A 
ATOM     25  C   UNL     1      17.354  17.475 -16.271  1.00  0.00    -0.036 A 
ATOM     26  C   UNL     1      19.878  16.909 -17.347  1.00  0.00     0.165 A 
ATOM     27  C   UNL     1      18.526  17.916 -15.626  1.00  0.00     0.053 A 
ATOM     28  C   UNL     1      19.774  17.629 -16.165  1.00  0.00     0.151 A 
ATOM     29  F   UNL     1      21.091  16.642 -17.854  1.00  0.00    -0.203 F 
BRANCH  25  30
ATOM     30  C   UNL     1      16.020  17.831 -15.650  1.00  0.00     0.033 C 
ATOM     31  C   UNL     1      15.897  17.316 -14.223  1.00  0.00     0.009 C 
ENDBRANCH  25  30
BRANCH  28  32
ATOM     32  O   UNL     1      20.887  18.073 -15.510  1.00  0.00    -0.505 OA
ATOM     33  H   UNL     1      21.189  17.343 -14.937  1.00  0.00     0.293 HD
ENDBRANCH  28  32
ENDBRANCH   3  23
TORSDOF 7
ENDMDL
MODEL 4
REMARK VINA RESULT:      -7.8      3.534      7.351
REMARK SMILES C=CC(=O)N1CC[C@@H](Oc2cc(-c3cc(F)c(O)cc3CC)cn3cncc23)C(F)(F)C1
REMARK SMILES IDX 10 1 11 2 12 3 23 4 24 5 25 6 26 7 27 8 28 9 9 10 8 11 5 12
REMARK SMILES IDX 6 13 32 14 7 15 29 16 30 17 31 18 3 19 4 20 2 21 1 22 13 23
REMARK SMILES IDX 14 24 20 25 15 26 19 27 17 28 16 29 21 30 22 31 18 32
REMARK H PARENT 18 33
ROOT
ATOM      1  C   UNL     1      10.622  12.727 -19.018  1.00  0.00     0.146 A 
ATOM      2  C   UNL     1      11.524  13.020 -19.974  1.00  0.00     0.059 A 
ATOM      3  C   UNL     1      11.386  12.527 -21.346  1.00  0.00     0.002 A 
ATOM      4  C   UNL     1      10.292  11.795 -21.648  1.00  0.00     0.101 A 
ATOM      5  N   UNL     1       9.349  11.534 -20.658  1.00  0.00    -0.302 N 
ATOM      6  C   UNL     1       8.171  10.833 -20.730  1.00  0.00     0.204 A 
ATOM      7  N   UNL     1       7.531  10.819 -19.581  1.00  0.00    -0.244 NA
ATOM      8  C   UNL     1       8.320  11.542 -18.721  1.00  0.00     0.143 A 
ATOM      9  C   UNL     1       9.463  11.980 -19.350  1.00  0.00     0.107 A 
ENDROOT
BRANCH   1  10
ATOM     10  O   UNL     1      10.723  13.207 -17.733  1.00  0.00    -0.482 OA
BRANCH  10  11
ATOM     11  C   UNL     1      11.267  12.229 -16.815  1.00  0.00     0.246 C 
ATOM     12  N   UNL     1      11.789  14.043 -14.631  1.00  0.00    -0.333 N 
ATOM     13  C   UNL     1      11.019  12.841 -14.321  1.00  0.00     0.124 C 
ATOM     14  C   UNL     1      12.786  13.914 -15.706  1.00  0.00     0.200 C 
ATOM     15  C   UNL     1      10.367  12.234 -15.565  1.00  0.00     0.073 C 
ATOM     16  C   UNL     1      12.710  12.590 -16.465  1.00  0.00     0.301 C 
ATOM     17  F   UNL     1      13.249  11.596 -15.705  1.00  0.00    -0.201 F 
ATOM     18  F   UNL     1      13.478  12.657 -17.583  1.00  0.00    -0.201 F 
BRANCH  12  19
ATOM     19  C   UNL     1      11.770  15.085 -13.712  1.00  0.00     0.246 C 
ATOM     20  O   UNL     1      12.167  16.217 -13.980  1.00  0.00    -0.270 OA
BRANCH  19  21
ATOM     21  C   UNL     1      11.244  14.778 -12.351  1.00  0.00     0.063 C 
ATOM     22  C   UNL     1      12.053  14.836 -11.284  1.00  0.00     0.014 C 
ENDBRANCH  19  21
ENDBRANCH  12  19
ENDBRANCH  10  11
ENDBRANCH   1  10
BRANCH   3  23
ATOM     23  C   UNL     1      12.370  12.808 -22.405  1.00  0.00    -0.010 A 
ATOM     24  C   UNL     1      12.963  11.710 -23.053  1.00  0.00     0.052 A 
ATOM     25  C   UNL     1      12.720  14.124 -22.790  1.00  0.00    -0.036 A 
ATOM     26  C   UNL     1      13.886  11.921 -24.067  1.00  0.00     0.165 A 
ATOM     27  C   UNL     1      13.656  14.307 -23.826  1.00  0.00     0.053 A 
ATOM     28  C   UNL     1      14.232  13.209 -24.453  1.00  0.00     0.151 A 
ATOM     29  F   UNL     1      14.450  10.872 -24.684  1.00  0.00    -0.203 F 
BRANCH  25  30
ATOM     30  C   UNL     1      12.109  15.356 -22.154  1.00  0.00     0.033 C 
ATOM     31  C   UNL     1      13.156  16.226 -21.472  1.00  0.00     0.009 C 
ENDBRANCH  25  30
BRANCH  28  32
ATOM     32  O   UNL     1      15.137  13.426 -25.452  1.00  0.00    -0.505 OA
ATOM     33  H   UNL     1      14.776  13.009 -26.258  1.00  0.00     0.293 HD
ENDBRANCH  28  32
ENDBRANCH   3  23
TORSDOF 7
ENDMDL
MODEL 5
REMARK VINA RESULT:      -7.6     26.407     30.055
REMARK SMILES C=CC(=O)N1CC[C@@H](Oc2cc(-c3cc(F)c(O)cc3CC)cn3cncc23)C(F)(F)C1
REMARK SMILES IDX 10 1 11 2 12 3 23 4 24 5 25 6 26 7 27 8 28 9 9 10 8 11 5 12
REMARK SMILES IDX 6 13 32 14 7 15 29 16 30 17 31 18 3 19 4 20 2 21 1 22 13 23
REMARK SMILES IDX 14 24 20 25 15 26 19 27 17 28 16 29 21 30 22 31 18 32
REMARK H PARENT 18 33
ROOT
ATOM      1  C   UNL     1       3.811 -12.194 -12.165  1.00  0.00     0.146 A 
ATOM      2  C   UNL     1       2.896 -12.061 -11.185  1.00  0.00     0.059 A 
ATOM      3  C   UNL     1       1.497 -12.454 -11.375  1.00  0.00     0.002 A 
ATOM      4  C   UNL     1       1.149 -13.001 -12.559  1.00  0.00     0.101 A 
ATOM      5  N   UNL     1       2.115 -13.169 -13.546  1.00  0.00    -0.302 N 
ATOM      6  C   UNL     1       2.001 -13.703 -14.805  1.00  0.00     0.204 A 
ATOM      7  N   UNL     1       3.149 -13.710 -15.447  1.00  0.00    -0.244 NA
ATOM      8  C   UNL     1       4.053 -13.162 -14.573  1.00  0.00     0.143 A 
ATOM      9  C   UNL     1       3.442 -12.795 -13.395  1.00  0.00     0.107 A 
ENDROOT
BRANCH   1  10
ATOM     10  O   UNL     1       5.133 -11.858 -11.992  1.00  0.00    -0.482 OA
BRANCH  10  11
ATOM     11  C   UNL     1       5.914 -12.943 -11.437  1.00  0.00     0.246 C 
ATOM     12  N   UNL     1       8.133 -11.346 -10.510  1.00  0.00    -0.333 N 
ATOM     13  C   UNL     1       7.521 -12.251  -9.541  1.00  0.00     0.124 C 
ATOM     14  C   UNL     1       8.108 -11.788 -11.914  1.00  0.00     0.200 C 
ATOM     15  C   UNL     1       6.097 -12.647  -9.937  1.00  0.00     0.073 C 
ATOM     16  C   UNL     1       7.260 -13.035 -12.155  1.00  0.00     0.301 C 
ATOM     17  F   UNL     1       7.930 -14.137 -11.712  1.00  0.00    -0.201 F 
ATOM     18  F   UNL     1       7.086 -13.222 -13.489  1.00  0.00    -0.201 F 
BRANCH  12  19
ATOM     19  C   UNL     1       8.957 -10.336 -10.029  1.00  0.00     0.246 C 
ATOM     20  O   UNL     1      10.072 -10.553  -9.558  1.00  0.00    -0.270 OA
BRANCH  19  21
ATOM     21  C   UNL     1       8.432  -8.943 -10.099  1.00  0.00     0.063 C 
ATOM     22  C   UNL     1       7.456  -8.545  -9.271  1.00  0.00     0.014 C 
ENDBRANCH  19  21
ENDBRANCH  12  19
ENDBRANCH  10  11
ENDBRANCH   1  10
BRANCH   3  23
ATOM     23  C   UNL     1       0.470 -12.295 -10.332  1.00  0.00    -0.010 A 
ATOM     24  C   UNL     1       0.087 -13.441  -9.613  1.00  0.00     0.052 A 
ATOM     25  C   UNL     1      -0.121 -11.045 -10.029  1.00  0.00    -0.036 A 
ATOM     26  C   UNL     1      -0.868 -13.343  -8.611  1.00  0.00     0.165 A 
ATOM     27  C   UNL     1      -1.083 -10.976  -9.003  1.00  0.00     0.053 A 
ATOM     28  C   UNL     1      -1.450 -12.120  -8.306  1.00  0.00     0.151 A 
ATOM     29  F   UNL     1      -1.232 -14.437  -7.927  1.00  0.00    -0.203 F 
BRANCH  25  30
ATOM     30  C   UNL     1       0.255  -9.764 -10.743  1.00  0.00     0.033 C 
ATOM     31  C   UNL     1      -0.055  -8.530  -9.906  1.00  0.00     0.009 C 
ENDBRANCH  25  30
BRANCH  28  32
ATOM     32  O   UNL     1      -2.387 -12.012  -7.318  1.00  0.00    -0.505 OA
ATOM     33  H   UNL     1      -3.253 -12.208  -7.726  1.00  0.00     0.293 HD
ENDBRANCH  28  32
ENDBRANCH   3  23
TORSDOF 7
ENDMDL
MODEL 6
REMARK VINA RESULT:      -7.4      4.240      7.982
REMARK SMILES C=CC(=O)N1CC[C@@H](Oc2cc(-c3cc(F)c(O)cc3CC)cn3cncc23)C(F)(F)C1
REMARK SMILES IDX 10 1 11 2 12 3 23 4 24 5 25 6 26 7 27 8 28 9 9 10 8 11 5 12
REMARK SMILES IDX 6 13 32 14 7 15 29 16 30 17 31 18 3 19 4 20 2 21 1 22 13 23
REMARK SMILES IDX 14 24 20 25 15 26 19 27 17 28 16 29 21 30 22 31 18 32
REMARK H PARENT 18 33
ROOT
ATOM      1  C   UNL     1      10.091  11.768 -20.352  1.00  0.00     0.146 A 
ATOM      2  C   UNL     1      11.116  12.220 -21.099  1.00  0.00     0.059 A 
ATOM      3  C   UNL     1      11.189  11.976 -22.542  1.00  0.00     0.002 A 
ATOM      4  C   UNL     1      10.166  11.314 -23.123  1.00  0.00     0.101 A 
ATOM      5  N   UNL     1       9.095  10.888 -22.344  1.00  0.00    -0.302 N 
ATOM      6  C   UNL     1       7.954  10.217 -22.709  1.00  0.00     0.204 A 
ATOM      7  N   UNL     1       7.155  10.004 -21.686  1.00  0.00    -0.244 NA
ATOM      8  C   UNL     1       7.795  10.562 -20.607  1.00  0.00     0.143 A 
ATOM      9  C   UNL     1       9.008  11.098 -20.976  1.00  0.00     0.107 A 
ENDROOT
BRANCH   1  10
ATOM     10  O   UNL     1       9.994  12.016 -19.002  1.00  0.00    -0.482 OA
BRANCH  10  11
ATOM     11  C   UNL     1       9.350  13.280 -18.714  1.00  0.00     0.246 C 
ATOM     12  N   UNL     1      10.197  13.490 -15.962  1.00  0.00    -0.333 N 
ATOM     13  C   UNL     1      10.455  14.642 -16.822  1.00  0.00     0.124 C 
ATOM     14  C   UNL     1       8.997  12.700 -16.282  1.00  0.00     0.200 C 
ATOM     15  C   UNL     1      10.459  14.268 -18.306  1.00  0.00     0.073 C 
ATOM     16  C   UNL     1       8.326  13.098 -17.595  1.00  0.00     0.301 C 
ATOM     17  F   UNL     1       7.639  14.263 -17.423  1.00  0.00    -0.201 F 
ATOM     18  F   UNL     1       7.395  12.170 -17.936  1.00  0.00    -0.201 F 
BRANCH  12  19
ATOM     19  C   UNL     1      10.876  13.413 -14.752  1.00  0.00     0.246 C 
ATOM     20  O   UNL     1      11.222  12.346 -14.249  1.00  0.00    -0.270 OA
BRANCH  19  21
ATOM     21  C   UNL     1      11.177  14.700 -14.062  1.00  0.00     0.063 C 
ATOM     22  C   UNL     1      11.584  14.703 -12.785  1.00  0.00     0.014 C 
ENDBRANCH  19  21
ENDBRANCH  12  19
ENDBRANCH  10  11
ENDBRANCH   1  10
BRANCH   3  23
ATOM     23  C   UNL     1      12.311  12.433 -23.379  1.00  0.00    -0.010 A 
ATOM     24  C   UNL     1      13.032  11.460 -24.093  1.00  0.00     0.052 A 
ATOM     25  C   UNL     1      12.668  13.798 -23.495  1.00  0.00    -0.036 A 
ATOM     26  C   UNL     1      14.089  11.840 -24.907  1.00  0.00     0.165 A 
ATOM     27  C   UNL     1      13.743  14.154 -24.332  1.00  0.00     0.053 A 
ATOM     28  C   UNL     1      14.444  13.176 -25.027  1.00  0.00     0.151 A 
ATOM     29  F   UNL     1      14.776  10.910 -25.586  1.00  0.00    -0.203 F 
BRANCH  25  30
ATOM     30  C   UNL     1      11.927  14.905 -22.775  1.00  0.00     0.033 C 
ATOM     31  C   UNL     1      12.872  15.836 -22.030  1.00  0.00     0.009 C 
ENDBRANCH  25  30
BRANCH  28  32
ATOM     32  O   UNL     1      15.481  13.561 -25.829  1.00  0.00    -0.505 OA
ATOM     33  H   UNL     1      15.993  12.756 -26.036  1.00  0.00     0.293 HD
ENDBRANCH  28  32
ENDBRANCH   3  23
TORSDOF 7
ENDMDL
MODEL 7
REMARK VINA RESULT:      -7.4      4.387      7.848
REMARK SMILES C=CC(=O)N1CC[C@@H](Oc2cc(-c3cc(F)c(O)cc3CC)cn3cncc23)C(F)(F)C1
REMARK SMILES IDX 10 1 11 2 12 3 23 4 24 5 25 6 26 7 27 8 28 9 9 10 8 11 5 12
REMARK SMILES IDX 6 13 32 14 7 15 29 16 30 17 31 18 3 19 4 20 2 21 1 22 13 23
REMARK SMILES IDX 14 24 20 25 15 26 19 27 17 28 16 29 21 30 22 31 18 32
REMARK H PARENT 18 33
ROOT
ATOM      1  C   UNL     1      10.368  12.009 -20.646  1.00  0.00     0.146 A 
ATOM      2  C   UNL     1      11.255  12.736 -21.352  1.00  0.00     0.059 A 
ATOM      3  C   UNL     1      11.286  12.709 -22.816  1.00  0.00     0.002 A 
ATOM      4  C   UNL     1      10.362  11.960 -23.455  1.00  0.00     0.101 A 
ATOM      5  N   UNL     1       9.427  11.246 -22.712  1.00  0.00    -0.302 N 
ATOM      6  C   UNL     1       8.401  10.438 -23.133  1.00  0.00     0.204 A 
ATOM      7  N   UNL     1       7.711   9.946 -22.127  1.00  0.00    -0.244 NA
ATOM      8  C   UNL     1       8.305  10.456 -21.000  1.00  0.00     0.143 A 
ATOM      9  C   UNL     1       9.383  11.247 -21.326  1.00  0.00     0.107 A 
ENDROOT
BRANCH   1  10
ATOM     10  O   UNL     1      10.307  12.048 -19.273  1.00  0.00    -0.482 OA
BRANCH  10  11
ATOM     11  C   UNL     1       9.332  13.001 -18.786  1.00  0.00     0.246 C 
ATOM     12  N   UNL     1      10.412  13.288 -16.125  1.00  0.00    -0.333 N 
ATOM     13  C   UNL     1      10.171  14.517 -16.875  1.00  0.00     0.124 C 
ATOM     14  C   UNL     1       9.502  12.166 -16.409  1.00  0.00     0.200 C 
ATOM     15  C   UNL     1      10.103  14.271 -18.384  1.00  0.00     0.073 C 
ATOM     16  C   UNL     1       8.574  12.408 -17.599  1.00  0.00     0.301 C 
ATOM     17  F   UNL     1       7.576  13.261 -17.234  1.00  0.00    -0.201 F 
ATOM     18  F   UNL     1       7.959  11.249 -17.945  1.00  0.00    -0.201 F 
BRANCH  12  19
ATOM     19  C   UNL     1      11.230  13.357 -15.003  1.00  0.00     0.246 C 
ATOM     20  O   UNL     1      12.426  13.076 -15.032  1.00  0.00    -0.270 OA
BRANCH  19  21
ATOM     21  C   UNL     1      10.592  13.790 -13.726  1.00  0.00     0.063 C 
ATOM     22  C   UNL     1      11.265  14.563 -12.862  1.00  0.00     0.014 C 
ENDBRANCH  19  21
ENDBRANCH  12  19
ENDBRANCH  10  11
ENDBRANCH   1  10
BRANCH   3  23
ATOM     23  C   UNL     1      12.262  13.471 -23.614  1.00  0.00    -0.010 A 
ATOM     24  C   UNL     1      11.914  14.778 -23.996  1.00  0.00     0.052 A 
ATOM     25  C   UNL     1      13.521  12.941 -23.987  1.00  0.00    -0.036 A 
ATOM     26  C   UNL     1      12.803  15.544 -24.737  1.00  0.00     0.165 A 
ATOM     27  C   UNL     1      14.404  13.744 -24.734  1.00  0.00     0.053 A 
ATOM     28  C   UNL     1      14.040  15.032 -25.104  1.00  0.00     0.151 A 
ATOM     29  F   UNL     1      12.469  16.790 -25.101  1.00  0.00    -0.203 F 
BRANCH  25  30
ATOM     30  C   UNL     1      13.976  11.551 -23.595  1.00  0.00     0.033 C 
ATOM     31  C   UNL     1      13.717  10.533 -24.697  1.00  0.00     0.009 C 
ENDBRANCH  25  30
BRANCH  28  32
ATOM     32  O   UNL     1      14.925  15.779 -25.829  1.00  0.00    -0.505 OA
ATOM     33  H   UNL     1      14.991  16.647 -25.388  1.00  0.00     0.293 HD
ENDBRANCH  28  32
ENDBRANCH   3  23
TORSDOF 7
ENDMDL
MODEL 8
REMARK VINA RESULT:      -7.1     27.939     30.272
REMARK SMILES C=CC(=O)N1CC[C@@H](Oc2cc(-c3cc(F)c(O)cc3CC)cn3cncc23)C(F)(F)C1
REMARK SMILES IDX 10 1 11 2 12 3 23 4 24 5 25 6 26 7 27 8 28 9 9 10 8 11 5 12
REMARK SMILES IDX 6 13 32 14 7 15 29 16 30 17 31 18 3 19 4 20 2 21 1 22 13 23
REMARK SMILES IDX 14 24 20 25 15 26 19 27 17 28 16 29 21 30 22 31 18 32
REMARK H PARENT 18 33
ROOT
ATOM      1  C   UNL     1       3.568 -12.705 -10.904  1.00  0.00     0.146 A 
ATOM      2  C   UNL     1       2.367 -12.429 -10.361  1.00  0.00     0.059 A 
ATOM      3  C   UNL     1       2.240 -11.737  -9.076  1.00  0.00     0.002 A 
ATOM      4  C   UNL     1       3.372 -11.336  -8.458  1.00  0.00     0.101 A 
ATOM      5  N   UNL     1       4.604 -11.594  -9.052  1.00  0.00    -0.302 N 
ATOM      6  C   UNL     1       5.869 -11.278  -8.624  1.00  0.00     0.204 A 
ATOM      7  N   UNL     1       6.793 -11.673  -9.473  1.00  0.00    -0.244 NA
ATOM      8  C   UNL     1       6.106 -12.268 -10.501  1.00  0.00     0.143 A 
ATOM      9  C   UNL     1       4.751 -12.256 -10.262  1.00  0.00     0.107 A 
ENDROOT
BRANCH   1  10
ATOM     10  O   UNL     1       3.703 -13.327 -12.123  1.00  0.00    -0.482 OA
BRANCH  10  11
ATOM     11  C   UNL     1       3.174 -12.533 -13.213  1.00  0.00     0.246 C 
ATOM     12  N   UNL     1       3.135 -14.633 -15.194  1.00  0.00    -0.333 N 
ATOM     13  C   UNL     1       1.897 -13.882 -15.003  1.00  0.00     0.124 C 
ATOM     14  C   UNL     1       4.385 -13.889 -14.966  1.00  0.00     0.200 C 
ATOM     15  C   UNL     1       1.846 -13.184 -13.642  1.00  0.00     0.073 C 
ATOM     16  C   UNL     1       4.177 -12.500 -14.365  1.00  0.00     0.301 C 
ATOM     17  F   UNL     1       3.725 -11.648 -15.328  1.00  0.00    -0.201 F 
ATOM     18  F   UNL     1       5.369 -11.993 -13.957  1.00  0.00    -0.201 F 
BRANCH  12  19
ATOM     19  C   UNL     1       3.066 -15.844 -15.872  1.00  0.00     0.246 C 
ATOM     20  O   UNL     1       3.723 -16.829 -15.544  1.00  0.00    -0.270 OA
BRANCH  19  21
ATOM     21  C   UNL     1       2.148 -15.912 -17.045  1.00  0.00     0.063 C 
ATOM     22  C   UNL     1       2.583 -15.564 -18.265  1.00  0.00     0.014 C 
ENDBRANCH  19  21
ENDBRANCH  12  19
ENDBRANCH  10  11
ENDBRANCH   1  10
BRANCH   3  23
ATOM     23  C   UNL     1       0.942 -11.447  -8.444  1.00  0.00    -0.010 A 
ATOM     24  C   UNL     1       0.626 -12.130  -7.257  1.00  0.00     0.052 A 
ATOM     25  C   UNL     1       0.027 -10.508  -8.980  1.00  0.00    -0.036 A 
ATOM     26  C   UNL     1      -0.579 -11.883  -6.615  1.00  0.00     0.165 A 
ATOM     27  C   UNL     1      -1.186 -10.275  -8.303  1.00  0.00     0.053 A 
ATOM     28  C   UNL     1      -1.480 -10.962  -7.132  1.00  0.00     0.151 A 
ATOM     29  F   UNL     1      -0.878 -12.536  -5.482  1.00  0.00    -0.203 F 
BRANCH  25  30
ATOM     30  C   UNL     1       0.305  -9.718 -10.241  1.00  0.00     0.033 C 
ATOM     31  C   UNL     1      -0.039  -8.244 -10.080  1.00  0.00     0.009 C 
ENDBRANCH  25  30
BRANCH  28  32
ATOM     32  O   UNL     1      -2.667 -10.709  -6.505  1.00  0.00    -0.505 OA
ATOM     33  H   UNL     1      -3.375 -10.929  -7.139  1.00  0.00     0.293 HD
ENDBRANCH  28  32
ENDBRANCH   3  23
TORSDOF 7
ENDMDL
MODEL 9
REMARK VINA RESULT:      -7.1     27.610     31.796
REMARK SMILES C=CC(=O)N1CC[C@@H](Oc2cc(-c3cc(F)c(O)cc3CC)cn3cncc23)C(F)(F)C1
REMARK SMILES IDX 10 1 11 2 12 3 23 4 24 5 25 6 26 7 27 8 28 9 9 10 8 11 5 12
REMARK SMILES IDX 6 13 32 14 7 15 29 16 30 17 31 18 3 19 4 20 2 21 1 22 13 23
REMARK SMILES IDX 14 24 20 25 15 26 19 27 17 28 16 29 21 30 22 31 18 32
REMARK H PARENT 18 33
ROOT
ATOM      1  C   UNL     1      -5.965  -9.133 -17.487  1.00  0.00     0.146 A 
ATOM      2  C   UNL     1      -6.557 -10.262 -17.052  1.00  0.00     0.059 A 
ATOM      3  C   UNL     1      -5.948 -11.580 -17.247  1.00  0.00     0.002 A 
ATOM      4  C   UNL     1      -4.739 -11.636 -17.845  1.00  0.00     0.101 A 
ATOM      5  N   UNL     1      -4.122 -10.457 -18.253  1.00  0.00    -0.302 N 
ATOM      6  C   UNL     1      -2.907 -10.266 -18.863  1.00  0.00     0.204 A 
ATOM      7  N   UNL     1      -2.655  -8.993 -19.080  1.00  0.00    -0.244 NA
ATOM      8  C   UNL     1      -3.746  -8.322 -18.588  1.00  0.00     0.143 A 
ATOM      9  C   UNL     1      -4.682  -9.199 -18.090  1.00  0.00     0.107 A 
ENDROOT
BRANCH   1  10
ATOM     10  O   UNL     1      -6.510  -7.887 -17.284  1.00  0.00    -0.482 OA
BRANCH  10  11
ATOM     11  C   UNL     1      -6.882  -7.662 -15.903  1.00  0.00     0.246 C 
ATOM     12  N   UNL     1      -6.628  -4.786 -15.932  1.00  0.00    -0.333 N 
ATOM     13  C   UNL     1      -7.884  -5.333 -15.427  1.00  0.00     0.124 C 
ATOM     14  C   UNL     1      -5.427  -5.607 -15.706  1.00  0.00     0.200 C 
ATOM     15  C   UNL     1      -8.132  -6.762 -15.914  1.00  0.00     0.073 C 
ATOM     16  C   UNL     1      -5.726  -7.001 -15.155  1.00  0.00     0.301 C 
ATOM     17  F   UNL     1      -6.041  -6.912 -13.832  1.00  0.00    -0.201 F 
ATOM     18  F   UNL     1      -4.607  -7.768 -15.216  1.00  0.00    -0.201 F 
BRANCH  12  19
ATOM     19  C   UNL     1      -6.593  -3.441 -16.277  1.00  0.00     0.246 C 
ATOM     20  O   UNL     1      -7.609  -2.768 -16.440  1.00  0.00    -0.270 OA
BRANCH  19  21
ATOM     21  C   UNL     1      -5.248  -2.822 -16.455  1.00  0.00     0.063 C 
ATOM     22  C   UNL     1      -4.917  -2.244 -17.618  1.00  0.00     0.014 C 
ENDBRANCH  19  21
ENDBRANCH  12  19
ENDBRANCH  10  11
ENDBRANCH   1  10
BRANCH   3  23
ATOM     23  C   UNL     1      -6.584 -12.833 -16.807  1.00  0.00    -0.010 A 
ATOM     24  C   UNL     1      -6.019 -13.499 -15.705  1.00  0.00     0.052 A 
ATOM     25  C   UNL     1      -7.732 -13.367 -17.439  1.00  0.00    -0.036 A 
ATOM     26  C   UNL     1      -6.589 -14.677 -15.241  1.00  0.00     0.165 A 
ATOM     27  C   UNL     1      -8.291 -14.561 -16.942  1.00  0.00     0.053 A 
ATOM     28  C   UNL     1      -7.717 -15.206 -15.854  1.00  0.00     0.151 A 
ATOM     29  F   UNL     1      -6.049 -15.311 -14.190  1.00  0.00    -0.203 F 
BRANCH  25  30
ATOM     30  C   UNL     1      -8.409 -12.697 -18.615  1.00  0.00     0.033 C 
ATOM     31  C   UNL     1      -7.809 -13.132 -19.945  1.00  0.00     0.009 C 
ENDBRANCH  25  30
BRANCH  28  32
ATOM     32  O   UNL     1      -8.287 -16.362 -15.403  1.00  0.00    -0.505 OA
ATOM     33  H   UNL     1      -9.018 -16.575 -16.014  1.00  0.00     0.293 HD
ENDBRANCH  28  32
ENDBRANCH   3  23
TORSDOF 7
ENDMDL
