MODEL 1
REMARK VINA RESULT:      -9.0      0.000      0.000
REMARK SMILES C=CC(=O)N1[C@@H]2CC[C@H]1C[C@H](Oc1cc(-c3cc(F)c(O)cc3CC)cn3cncc13)C2
REMARK SMILES IDX 13 1 14 2 15 3 26 4 27 5 28 6 29 7 30 8 31 9 12 10 11 11
REMARK SMILES IDX 5 12 6 13 9 14 7 15 32 16 8 17 10 18 3 19 4 20 2 21 1 22
REMARK SMILES IDX 16 23 17 24 23 25 18 26 22 27 20 28 19 29 24 30 25 31 21 32
REMARK H PARENT 21 33
ROOT
ATOM      1  C   UNL     1      14.019  16.043 -14.862  1.00  0.00     0.146 A 
ATOM      2  C   UNL     1      13.188  15.465 -15.758  1.00  0.00     0.059 A 
ATOM      3  C   UNL     1      11.988  14.724 -15.351  1.00  0.00     0.002 A 
ATOM      4  C   UNL     1      11.713  14.632 -14.035  1.00  0.00     0.101 A 
ATOM      5  N   UNL     1      12.574  15.227 -13.118  1.00  0.00    -0.302 N 
ATOM      6  C   UNL     1      12.509  15.261 -11.747  1.00  0.00     0.204 A 
ATOM      7  N   UNL     1      13.515  15.925 -11.218  1.00  0.00    -0.244 NA
ATOM      8  C   UNL     1      14.268  16.345 -12.289  1.00  0.00     0.143 A 
ATOM      9  C   UNL     1      13.713  15.926 -13.477  1.00  0.00     0.107 A 
ENDROOT
BRANCH   1  10
ATOM     10  O   UNL     1      15.164  16.755 -15.104  1.00  0.00    -0.488 OA
BRANCH  10  11
ATOM     11  C   UNL     1      15.538  17.084 -16.446  1.00  0.00     0.177 C 
ATOM     12  N   UNL     1      18.003  17.270 -17.948  1.00  0.00    -0.333 N 
ATOM     13  C   UNL     1      17.069  16.210 -18.298  1.00  0.00     0.089 C 
ATOM     14  C   UNL     1      17.201  18.472 -17.800  1.00  0.00     0.089 C 
ATOM     15  C   UNL     1      16.185  16.896 -19.350  1.00  0.00     0.027 C 
ATOM     16  C   UNL     1      16.280  15.857 -17.027  1.00  0.00     0.070 C 
ATOM     17  C   UNL     1      16.274  18.398 -19.019  1.00  0.00     0.027 C 
ATOM     18  C   UNL     1      16.421  18.351 -16.478  1.00  0.00     0.070 C 
BRANCH  12  19
ATOM     19  C   UNL     1      19.241  17.179 -17.351  1.00  0.00     0.246 C 
ATOM     20  O   UNL     1      19.394  17.289 -16.136  1.00  0.00    -0.270 OA
BRANCH  19  21
ATOM     21  C   UNL     1      20.405  16.946 -18.247  1.00  0.00     0.063 C 
ATOM     22  C   UNL     1      21.431  16.186 -17.841  1.00  0.00     0.014 C 
ENDBRANCH  19  21
ENDBRANCH  12  19
ENDBRANCH  10  11
ENDBRANCH   1  10
BRANCH   3  23
ATOM     23  C   UNL     1      11.072  14.094 -16.318  1.00  0.00    -0.010 A 
ATOM     24  C   UNL     1       9.981  14.852 -16.771  1.00  0.00     0.052 A 
ATOM     25  C   UNL     1      11.271  12.784 -16.812  1.00  0.00    -0.036 A 
ATOM     26  C   UNL     1       9.096  14.310 -17.694  1.00  0.00     0.165 A 
ATOM     27  C   UNL     1      10.354  12.257 -17.745  1.00  0.00     0.053 A 
ATOM     28  C   UNL     1       9.279  13.022 -18.178  1.00  0.00     0.151 A 
ATOM     29  F   UNL     1       8.054  15.035 -18.125  1.00  0.00    -0.203 F 
BRANCH  25  30
ATOM     30  C   UNL     1      12.418  11.902 -16.365  1.00  0.00     0.033 C 
ATOM     31  C   UNL     1      11.960  10.812 -15.408  1.00  0.00     0.009 C 
ENDBRANCH  25  30
BRANCH  28  32
ATOM     32  O   UNL     1       8.416  12.481 -19.086  1.00  0.00    -0.505 OA
ATOM     33  H   UNL     1       7.584  12.988 -19.026  1.00  0.00     0.293 HD
ENDBRANCH  28  32
ENDBRANCH   3  23
TORSDOF 7
ENDMDL
MODEL 2
REMARK VINA RESULT:      -8.9      3.504      6.915
REMARK SMILES C=CC(=O)N1[C@@H]2CC[C@H]1C[C@H](Oc1cc(-c3cc(F)c(O)cc3CC)cn3cncc13)C2
REMARK SMILES IDX 13 1 14 2 15 3 26 4 27 5 28 6 29 7 30 8 31 9 12 10 11 11
REMARK SMILES IDX 5 12 6 13 9 14 7 15 32 16 8 17 10 18 3 19 4 20 2 21 1 22
REMARK SMILES IDX 16 23 17 24 23 25 18 26 22 27 20 28 19 29 24 30 25 31 21 32
REMARK H PARENT 21 33
ROOT
ATOM      1  C   UNL     1      14.185  14.185 -17.178  1.00  0.00     0.146 A 
ATOM      2  C   UNL     1      13.388  14.025 -16.097  1.00  0.00     0.059 A 
ATOM      3  C   UNL     1      13.377  14.981 -14.983  1.00  0.00     0.002 A 
ATOM      4  C   UNL     1      14.189  16.054 -15.058  1.00  0.00     0.101 A 
ATOM      5  N   UNL     1      15.007  16.210 -16.171  1.00  0.00    -0.302 N 
ATOM      6  C   UNL     1      15.911  17.202 -16.464  1.00  0.00     0.204 A 
ATOM      7  N   UNL     1      16.505  17.007 -17.622  1.00  0.00    -0.244 NA
ATOM      8  C   UNL     1      15.967  15.839 -18.107  1.00  0.00     0.143 A 
ATOM      9  C   UNL     1      15.039  15.321 -17.230  1.00  0.00     0.107 A 
ENDROOT
BRANCH   1  10
ATOM     10  O   UNL     1      14.295  13.375 -18.277  1.00  0.00    -0.488 OA
BRANCH  10  11
ATOM     11  C   UNL     1      13.560  13.673 -19.469  1.00  0.00     0.177 C 
ATOM     12  N   UNL     1      11.042  12.861 -20.636  1.00  0.00    -0.333 N 
ATOM     13  C   UNL     1      11.170  14.237 -20.179  1.00  0.00     0.089 C 
ATOM     14  C   UNL     1      12.260  12.572 -21.372  1.00  0.00     0.089 C 
ATOM     15  C   UNL     1      11.710  14.941 -21.432  1.00  0.00     0.027 C 
ATOM     16  C   UNL     1      12.192  14.244 -19.030  1.00  0.00     0.070 C 
ATOM     17  C   UNL     1      12.433  13.836 -22.224  1.00  0.00     0.027 C 
ATOM     18  C   UNL     1      13.397  12.412 -20.346  1.00  0.00     0.070 C 
BRANCH  12  19
ATOM     19  C   UNL     1      10.282  11.837 -20.114  1.00  0.00     0.246 C 
ATOM     20  O   UNL     1      10.177  10.747 -20.671  1.00  0.00    -0.270 OA
BRANCH  19  21
ATOM     21  C   UNL     1       9.574  12.109 -18.834  1.00  0.00     0.063 C 
ATOM     22  C   UNL     1       8.237  12.046 -18.773  1.00  0.00     0.014 C 
ENDBRANCH  19  21
ENDBRANCH  12  19
ENDBRANCH  10  11
ENDBRANCH   1  10
BRANCH   3  23
ATOM     23  C   UNL     1      12.510  14.821 -13.803  1.00  0.00    -0.010 A 
ATOM     24  C   UNL     1      13.036  15.186 -12.553  1.00  0.00     0.052 A 
ATOM     25  C   UNL     1      11.181  14.343 -13.892  1.00  0.00    -0.036 A 
ATOM     26  C   UNL     1      12.256  15.069 -11.411  1.00  0.00     0.165 A 
ATOM     27  C   UNL     1      10.414  14.230 -12.716  1.00  0.00     0.053 A 
ATOM     28  C   UNL     1      10.954  14.594 -11.490  1.00  0.00     0.151 A 
ATOM     29  F   UNL     1      12.760  15.419 -10.219  1.00  0.00    -0.203 F 
BRANCH  25  30
ATOM     30  C   UNL     1      10.547  13.921 -15.200  1.00  0.00     0.033 C 
ATOM     31  C   UNL     1      10.246  12.430 -15.234  1.00  0.00     0.009 C 
ENDBRANCH  25  30
BRANCH  28  32
ATOM     32  O   UNL     1      10.179  14.476 -10.372  1.00  0.00    -0.505 OA
ATOM     33  H   UNL     1       9.791  13.581 -10.388  1.00  0.00     0.293 HD
ENDBRANCH  28  32
ENDBRANCH   3  23
TORSDOF 7
ENDMDL
MODEL 3
REMARK VINA RESULT:      -7.3     26.987     29.774
REMARK SMILES C=CC(=O)N1[C@@H]2CC[C@H]1C[C@H](Oc1cc(-c3cc(F)c(O)cc3CC)cn3cncc13)C2
REMARK SMILES IDX 13 1 14 2 15 3 26 4 27 5 28 6 29 7 30 8 31 9 12 10 11 11
REMARK SMILES IDX 5 12 6 13 9 14 7 15 32 16 8 17 10 18 3 19 4 20 2 21 1 22
REMARK SMILES IDX 16 23 17 24 23 25 18 26 22 27 20 28 19 29 24 30 25 31 21 32
REMARK H PARENT 21 33
ROOT
ATOM      1  C   UNL     1       4.286 -12.152 -11.335  1.00  0.00     0.146 A 
ATOM      2  C   UNL     1       3.206 -11.892 -10.564  1.00  0.00     0.059 A 
ATOM      3  C   UNL     1       1.876 -11.649 -11.135  1.00  0.00     0.002 A 
ATOM      4  C   UNL     1       1.740 -11.698 -12.475  1.00  0.00     0.101 A 
ATOM      5  N   UNL     1       2.855 -11.963 -13.261  1.00  0.00    -0.302 N 
ATOM      6  C   UNL     1       2.965 -12.054 -14.627  1.00  0.00     0.204 A 
ATOM      7  N   UNL     1       4.195 -12.320 -15.011  1.00  0.00    -0.244 NA
ATOM      8  C   UNL     1       4.920 -12.409 -13.847  1.00  0.00     0.143 A 
ATOM      9  C   UNL     1       4.120 -12.190 -12.748  1.00  0.00     0.107 A 
ENDROOT
BRANCH   1  10
ATOM     10  O   UNL     1       5.575 -12.392 -10.937  1.00  0.00    -0.488 OA
BRANCH  10  11
ATOM     11  C   UNL     1       6.406 -11.313 -10.498  1.00  0.00     0.177 C 
ATOM     12  N   UNL     1       8.478 -10.936  -8.516  1.00  0.00    -0.333 N 
ATOM     13  C   UNL     1       8.857 -10.868  -9.919  1.00  0.00     0.089 C 
ATOM     14  C   UNL     1       7.265 -10.147  -8.393  1.00  0.00     0.089 C 
ATOM     15  C   UNL     1       8.659  -9.378 -10.233  1.00  0.00     0.027 C 
ATOM     16  C   UNL     1       7.874 -11.755 -10.701  1.00  0.00     0.070 C 
ATOM     17  C   UNL     1       7.603  -8.900  -9.220  1.00  0.00     0.027 C 
ATOM     18  C   UNL     1       6.118 -10.958  -9.023  1.00  0.00     0.070 C 
BRANCH  12  19
ATOM     19  C   UNL     1       8.785 -11.895  -7.576  1.00  0.00     0.246 C 
ATOM     20  O   UNL     1       8.248 -11.929  -6.471  1.00  0.00    -0.270 OA
BRANCH  19  21
ATOM     21  C   UNL     1       9.816 -12.901  -7.952  1.00  0.00     0.063 C 
ATOM     22  C   UNL     1       9.462 -14.165  -8.222  1.00  0.00     0.014 C 
ENDBRANCH  19  21
ENDBRANCH  12  19
ENDBRANCH  10  11
ENDBRANCH   1  10
BRANCH   3  23
ATOM     23  C   UNL     1       0.690 -11.370 -10.305  1.00  0.00    -0.010 A 
ATOM     24  C   UNL     1       0.229 -10.044 -10.253  1.00  0.00     0.052 A 
ATOM     25  C   UNL     1       0.002 -12.381  -9.595  1.00  0.00    -0.036 A 
ATOM     26  C   UNL     1      -0.893  -9.730  -9.499  1.00  0.00     0.165 A 
ATOM     27  C   UNL     1      -1.131 -12.032  -8.833  1.00  0.00     0.053 A 
ATOM     28  C   UNL     1      -1.569 -10.715  -8.792  1.00  0.00     0.151 A 
ATOM     29  F   UNL     1      -1.331  -8.464  -9.450  1.00  0.00    -0.203 F 
BRANCH  25  30
ATOM     30  C   UNL     1       0.443 -13.829  -9.594  1.00  0.00     0.033 C 
ATOM     31  C   UNL     1      -0.355 -14.668 -10.582  1.00  0.00     0.009 C 
ENDBRANCH  25  30
BRANCH  28  32
ATOM     32  O   UNL     1      -2.673 -10.415  -8.048  1.00  0.00    -0.505 OA
ATOM     33  H   UNL     1      -3.151 -11.253  -7.898  1.00  0.00     0.293 HD
ENDBRANCH  28  32
ENDBRANCH   3  23
TORSDOF 7
ENDMDL
MODEL 4
REMARK VINA RESULT:      -7.2      1.685      1.922
REMARK SMILES C=CC(=O)N1[C@@H]2CC[C@H]1C[C@H](Oc1cc(-c3cc(F)c(O)cc3CC)cn3cncc13)C2
REMARK SMILES IDX 13 1 14 2 15 3 26 4 27 5 28 6 29 7 30 8 31 9 12 10 11 11
REMARK SMILES IDX 5 12 6 13 9 14 7 15 32 16 8 17 10 18 3 19 4 20 2 21 1 22
REMARK SMILES IDX 16 23 17 24 23 25 18 26 22 27 20 28 19 29 24 30 25 31 21 32
REMARK H PARENT 21 33
ROOT
ATOM      1  C   UNL     1      14.598  15.231 -16.221  1.00  0.00     0.146 A 
ATOM      2  C   UNL     1      13.798  14.579 -17.095  1.00  0.00     0.059 A 
ATOM      3  C   UNL     1      12.415  14.213 -16.769  1.00  0.00     0.002 A 
ATOM      4  C   UNL     1      11.937  14.552 -15.555  1.00  0.00     0.101 A 
ATOM      5  N   UNL     1      12.765  15.220 -14.661  1.00  0.00    -0.302 N 
ATOM      6  C   UNL     1      12.509  15.657 -13.384  1.00  0.00     0.204 A 
ATOM      7  N   UNL     1      13.551  16.253 -12.844  1.00  0.00    -0.244 NA
ATOM      8  C   UNL     1      14.529  16.207 -13.809  1.00  0.00     0.143 A 
ATOM      9  C   UNL     1      14.074  15.571 -14.943  1.00  0.00     0.107 A 
ENDROOT
BRANCH   1  10
ATOM     10  O   UNL     1      15.898  15.627 -16.394  1.00  0.00    -0.488 OA
BRANCH  10  11
ATOM     11  C   UNL     1      16.206  16.733 -17.249  1.00  0.00     0.177 C 
ATOM     12  N   UNL     1      18.483  18.457 -17.705  1.00  0.00    -0.333 N 
ATOM     13  C   UNL     1      18.100  17.539 -18.767  1.00  0.00     0.089 C 
ATOM     14  C   UNL     1      17.249  19.066 -17.241  1.00  0.00     0.089 C 
ATOM     15  C   UNL     1      17.096  18.379 -19.570  1.00  0.00     0.027 C 
ATOM     16  C   UNL     1      17.431  16.325 -18.102  1.00  0.00     0.070 C 
ATOM     17  C   UNL     1      16.532  19.393 -18.557  1.00  0.00     0.027 C 
ATOM     18  C   UNL     1      16.488  18.007 -16.422  1.00  0.00     0.070 C 
BRANCH  12  19
ATOM     19  C   UNL     1      19.599  18.438 -16.897  1.00  0.00     0.246 C 
ATOM     20  O   UNL     1      19.835  17.512 -16.124  1.00  0.00    -0.270 OA
BRANCH  19  21
ATOM     21  C   UNL     1      20.518  19.605 -16.989  1.00  0.00     0.063 C 
ATOM     22  C   UNL     1      21.802  19.486 -16.626  1.00  0.00     0.014 C 
ENDBRANCH  19  21
ENDBRANCH  12  19
ENDBRANCH  10  11
ENDBRANCH   1  10
BRANCH   3  23
ATOM     23  C   UNL     1      11.532  13.507 -17.713  1.00  0.00    -0.010 A 
ATOM     24  C   UNL     1      11.625  13.849 -19.072  1.00  0.00     0.052 A 
ATOM     25  C   UNL     1      10.631  12.497 -17.304  1.00  0.00    -0.036 A 
ATOM     26  C   UNL     1      10.825  13.203 -20.006  1.00  0.00     0.165 A 
ATOM     27  C   UNL     1       9.828  11.861 -18.272  1.00  0.00     0.053 A 
ATOM     28  C   UNL     1       9.933  12.216 -19.610  1.00  0.00     0.151 A 
ATOM     29  F   UNL     1      10.915  13.531 -21.302  1.00  0.00    -0.203 F 
BRANCH  25  30
ATOM     30  C   UNL     1      10.468  12.078 -15.858  1.00  0.00     0.033 C 
ATOM     31  C   UNL     1      11.281  10.835 -15.528  1.00  0.00     0.009 C 
ENDBRANCH  25  30
BRANCH  28  32
ATOM     32  O   UNL     1       9.144  11.575 -20.521  1.00  0.00    -0.505 OA
ATOM     33  H   UNL     1       8.608  12.259 -20.966  1.00  0.00     0.293 HD
ENDBRANCH  28  32
ENDBRANCH   3  23
TORSDOF 7
ENDMDL
MODEL 5
REMARK VINA RESULT:      -7.2     27.330     29.947
REMARK SMILES C=CC(=O)N1[C@@H]2CC[C@H]1C[C@H](Oc1cc(-c3cc(F)c(O)cc3CC)cn3cncc13)C2
REMARK SMILES IDX 13 1 14 2 15 3 26 4 27 5 28 6 29 7 30 8 31 9 12 10 11 11
REMARK SMILES IDX 5 12 6 13 9 14 7 15 32 16 8 17 10 18 3 19 4 20 2 21 1 22
REMARK SMILES IDX 16 23 17 24 23 25 18 26 22 27 20 28 19 29 24 30 25 31 21 32
REMARK H PARENT 21 33
ROOT
ATOM      1  C   UNL     1       4.098 -12.265 -11.120  1.00  0.00     0.146 A 
ATOM      2  C   UNL     1       3.064 -12.191 -10.251  1.00  0.00     0.059 A 
ATOM      3  C   UNL     1       1.687 -11.939 -10.691  1.00  0.00     0.002 A 
ATOM      4  C   UNL     1       1.458 -11.787 -12.011  1.00  0.00     0.101 A 
ATOM      5  N   UNL     1       2.526 -11.862 -12.898  1.00  0.00    -0.302 N 
ATOM      6  C   UNL     1       2.543 -11.733 -14.265  1.00  0.00     0.204 A 
ATOM      7  N   UNL     1       3.754 -11.866 -14.762  1.00  0.00    -0.244 NA
ATOM      8  C   UNL     1       4.563 -12.093 -13.675  1.00  0.00     0.143 A 
ATOM      9  C   UNL     1       3.833 -12.093 -12.508  1.00  0.00     0.107 A 
ENDROOT
BRANCH   1  10
ATOM     10  O   UNL     1       5.421 -12.490 -10.846  1.00  0.00    -0.488 OA
BRANCH  10  11
ATOM     11  C   UNL     1       6.247 -11.426 -10.360  1.00  0.00     0.177 C 
ATOM     12  N   UNL     1       8.533 -11.184  -8.605  1.00  0.00    -0.333 N 
ATOM     13  C   UNL     1       8.726 -10.900 -10.020  1.00  0.00     0.089 C 
ATOM     14  C   UNL     1       7.308 -10.503  -8.227  1.00  0.00     0.089 C 
ATOM     15  C   UNL     1       8.415  -9.398 -10.090  1.00  0.00     0.027 C 
ATOM     16  C   UNL     1       7.697 -11.737 -10.798  1.00  0.00     0.070 C 
ATOM     17  C   UNL     1       7.475  -9.135  -8.899  1.00  0.00     0.027 C 
ATOM     18  C   UNL     1       6.132 -11.296  -8.825  1.00  0.00     0.070 C 
BRANCH  12  19
ATOM     19  C   UNL     1       9.005 -12.240  -7.856  1.00  0.00     0.246 C 
ATOM     20  O   UNL     1       9.526 -13.228  -8.368  1.00  0.00    -0.270 OA
BRANCH  19  21
ATOM     21  C   UNL     1       8.850 -12.141  -6.380  1.00  0.00     0.063 C 
ATOM     22  C   UNL     1       9.876 -11.745  -5.616  1.00  0.00     0.014 C 
ENDBRANCH  19  21
ENDBRANCH  12  19
ENDBRANCH  10  11
ENDBRANCH   1  10
BRANCH   3  23
ATOM     23  C   UNL     1       0.551 -11.860  -9.755  1.00  0.00    -0.010 A 
ATOM     24  C   UNL     1      -0.204 -13.026  -9.548  1.00  0.00     0.052 A 
ATOM     25  C   UNL     1       0.222 -10.676  -9.055  1.00  0.00    -0.036 A 
ATOM     26  C   UNL     1      -1.275 -13.009  -8.664  1.00  0.00     0.165 A 
ATOM     27  C   UNL     1      -0.873 -10.687  -8.169  1.00  0.00     0.053 A 
ATOM     28  C   UNL     1      -1.609 -11.849  -7.980  1.00  0.00     0.151 A 
ATOM     29  F   UNL     1      -1.995 -14.123  -8.468  1.00  0.00    -0.203 F 
BRANCH  25  30
ATOM     30  C   UNL     1       0.983  -9.379  -9.232  1.00  0.00     0.033 C 
ATOM     31  C   UNL     1       0.205  -8.371 -10.066  1.00  0.00     0.009 C 
ENDBRANCH  25  30
BRANCH  28  32
ATOM     32  O   UNL     1      -2.660 -11.824  -7.109  1.00  0.00    -0.505 OA
ATOM     33  H   UNL     1      -2.454 -11.151  -6.433  1.00  0.00     0.293 HD
ENDBRANCH  28  32
ENDBRANCH   3  23
TORSDOF 7
ENDMDL
MODEL 6
REMARK VINA RESULT:      -7.1     28.024     30.745
REMARK SMILES C=CC(=O)N1[C@@H]2CC[C@H]1C[C@H](Oc1cc(-c3cc(F)c(O)cc3CC)cn3cncc13)C2
REMARK SMILES IDX 13 1 14 2 15 3 26 4 27 5 28 6 29 7 30 8 31 9 12 10 11 11
REMARK SMILES IDX 5 12 6 13 9 14 7 15 32 16 8 17 10 18 3 19 4 20 2 21 1 22
REMARK SMILES IDX 16 23 17 24 23 25 18 26 22 27 20 28 19 29 24 30 25 31 21 32
REMARK H PARENT 21 33
ROOT
ATOM      1  C   UNL     1       4.704 -11.842  -9.539  1.00  0.00     0.146 A 
ATOM      2  C   UNL     1       5.024 -12.495 -10.680  1.00  0.00     0.059 A 
ATOM      3  C   UNL     1       6.329 -12.339 -11.333  1.00  0.00     0.002 A 
ATOM      4  C   UNL     1       7.233 -11.520 -10.760  1.00  0.00     0.101 A 
ATOM      5  N   UNL     1       6.897 -10.851  -9.589  1.00  0.00    -0.302 N 
ATOM      6  C   UNL     1       7.637  -9.972  -8.837  1.00  0.00     0.204 A 
ATOM      7  N   UNL     1       6.975  -9.538  -7.785  1.00  0.00    -0.244 NA
ATOM      8  C   UNL     1       5.752 -10.161  -7.851  1.00  0.00     0.143 A 
ATOM      9  C   UNL     1       5.673 -10.977  -8.957  1.00  0.00     0.107 A 
ENDROOT
BRANCH   1  10
ATOM     10  O   UNL     1       3.532 -11.894  -8.832  1.00  0.00    -0.488 OA
BRANCH  10  11
ATOM     11  C   UNL     1       2.405 -11.115  -9.248  1.00  0.00     0.177 C 
ATOM     12  N   UNL     1      -0.449 -11.146  -8.783  1.00  0.00    -0.333 N 
ATOM     13  C   UNL     1       0.318 -10.036  -8.238  1.00  0.00     0.089 C 
ATOM     14  C   UNL     1       0.022 -11.324 -10.145  1.00  0.00     0.089 C 
ATOM     15  C   UNL     1       0.284  -9.026  -9.393  1.00  0.00     0.027 C 
ATOM     16  C   UNL     1       1.741 -10.553  -7.969  1.00  0.00     0.070 C 
ATOM     17  C   UNL     1       0.086  -9.880 -10.658  1.00  0.00     0.027 C 
ATOM     18  C   UNL     1       1.418 -11.970 -10.073  1.00  0.00     0.070 C 
BRANCH  12  19
ATOM     19  C   UNL     1      -1.079 -12.178  -8.121  1.00  0.00     0.246 C 
ATOM     20  O   UNL     1      -0.980 -12.337  -6.907  1.00  0.00    -0.270 OA
BRANCH  19  21
ATOM     21  C   UNL     1      -1.890 -13.112  -8.948  1.00  0.00     0.063 C 
ATOM     22  C   UNL     1      -1.893 -14.425  -8.680  1.00  0.00     0.014 C 
ENDBRANCH  19  21
ENDBRANCH  12  19
ENDBRANCH  10  11
ENDBRANCH   1  10
BRANCH   3  23
ATOM     23  C   UNL     1       6.690 -13.048 -12.573  1.00  0.00    -0.010 A 
ATOM     24  C   UNL     1       7.891 -13.776 -12.581  1.00  0.00     0.052 A 
ATOM     25  C   UNL     1       5.868 -13.037 -13.724  1.00  0.00    -0.036 A 
ATOM     26  C   UNL     1       8.270 -14.474 -13.720  1.00  0.00     0.165 A 
ATOM     27  C   UNL     1       6.280 -13.750 -14.867  1.00  0.00     0.053 A 
ATOM     28  C   UNL     1       7.473 -14.462 -14.856  1.00  0.00     0.151 A 
ATOM     29  F   UNL     1       9.417 -15.168 -13.725  1.00  0.00    -0.203 F 
BRANCH  25  30
ATOM     30  C   UNL     1       4.565 -12.269 -13.796  1.00  0.00     0.033 C 
ATOM     31  C   UNL     1       3.807 -12.550 -15.085  1.00  0.00     0.009 C 
ENDBRANCH  25  30
BRANCH  28  32
ATOM     32  O   UNL     1       7.838 -15.145 -15.979  1.00  0.00    -0.505 OA
ATOM     33  H   UNL     1       7.046 -15.205 -16.546  1.00  0.00     0.293 HD
ENDBRANCH  28  32
ENDBRANCH   3  23
TORSDOF 7
ENDMDL
MODEL 7
REMARK VINA RESULT:      -7.1     27.264     30.840
REMARK SMILES C=CC(=O)N1[C@@H]2CC[C@H]1C[C@H](Oc1cc(-c3cc(F)c(O)cc3CC)cn3cncc13)C2
REMARK SMILES IDX 13 1 14 2 15 3 26 4 27 5 28 6 29 7 30 8 31 9 12 10 11 11
REMARK SMILES IDX 5 12 6 13 9 14 7 15 32 16 8 17 10 18 3 19 4 20 2 21 1 22
REMARK SMILES IDX 16 23 17 24 23 25 18 26 22 27 20 28 19 29 24 30 25 31 21 32
REMARK H PARENT 21 33
ROOT
ATOM      1  C   UNL     1       6.841 -13.735 -13.631  1.00  0.00     0.146 A 
ATOM      2  C   UNL     1       6.729 -12.685 -12.786  1.00  0.00     0.059 A 
ATOM      3  C   UNL     1       7.331 -12.688 -11.447  1.00  0.00     0.002 A 
ATOM      4  C   UNL     1       8.023 -13.779 -11.064  1.00  0.00     0.101 A 
ATOM      5  N   UNL     1       8.132 -14.856 -11.937  1.00  0.00    -0.302 N 
ATOM      6  C   UNL     1       8.770 -16.061 -11.770  1.00  0.00     0.204 A 
ATOM      7  N   UNL     1       8.653 -16.836 -12.828  1.00  0.00    -0.244 NA
ATOM      8  C   UNL     1       7.910 -16.106 -13.725  1.00  0.00     0.143 A 
ATOM      9  C   UNL     1       7.570 -14.879 -13.201  1.00  0.00     0.107 A 
ENDROOT
BRANCH   1  10
ATOM     10  O   UNL     1       6.330 -13.863 -14.896  1.00  0.00    -0.488 OA
BRANCH  10  11
ATOM     11  C   UNL     1       4.992 -14.333 -15.088  1.00  0.00     0.177 C 
ATOM     12  N   UNL     1       2.433 -13.958 -13.793  1.00  0.00    -0.333 N 
ATOM     13  C   UNL     1       2.605 -13.416 -15.133  1.00  0.00     0.089 C 
ATOM     14  C   UNL     1       2.987 -15.300 -13.833  1.00  0.00     0.089 C 
ATOM     15  C   UNL     1       2.171 -14.596 -16.014  1.00  0.00     0.027 C 
ATOM     16  C   UNL     1       4.098 -13.090 -15.306  1.00  0.00     0.070 C 
ATOM     17  C   UNL     1       2.423 -15.846 -15.150  1.00  0.00     0.027 C 
ATOM     18  C   UNL     1       4.521 -15.168 -13.877  1.00  0.00     0.070 C 
BRANCH  12  19
ATOM     19  C   UNL     1       2.302 -13.292 -12.594  1.00  0.00     0.246 C 
ATOM     20  O   UNL     1       2.246 -13.882 -11.517  1.00  0.00    -0.270 OA
BRANCH  19  21
ATOM     21  C   UNL     1       2.221 -11.808 -12.654  1.00  0.00     0.063 C 
ATOM     22  C   UNL     1       1.082 -11.178 -12.334  1.00  0.00     0.014 C 
ENDBRANCH  19  21
ENDBRANCH  12  19
ENDBRANCH  10  11
ENDBRANCH   1  10
BRANCH   3  23
ATOM     23  C   UNL     1       7.220 -11.549 -10.519  1.00  0.00    -0.010 A 
ATOM     24  C   UNL     1       8.246 -10.591 -10.539  1.00  0.00     0.052 A 
ATOM     25  C   UNL     1       6.120 -11.383  -9.645  1.00  0.00    -0.036 A 
ATOM     26  C   UNL     1       8.182  -9.490  -9.695  1.00  0.00     0.165 A 
ATOM     27  C   UNL     1       6.084 -10.260  -8.796  1.00  0.00     0.053 A 
ATOM     28  C   UNL     1       7.110  -9.324  -8.828  1.00  0.00     0.151 A 
ATOM     29  F   UNL     1       9.162  -8.576  -9.715  1.00  0.00    -0.203 F 
BRANCH  25  30
ATOM     30  C   UNL     1       4.981 -12.377  -9.560  1.00  0.00     0.033 C 
ATOM     31  C   UNL     1       3.708 -11.741  -9.022  1.00  0.00     0.009 C 
ENDBRANCH  25  30
BRANCH  28  32
ATOM     32  O   UNL     1       7.038  -8.246  -7.995  1.00  0.00    -0.505 OA
ATOM     33  H   UNL     1       6.743  -8.576  -7.126  1.00  0.00     0.293 HD
ENDBRANCH  28  32
ENDBRANCH   3  23
TORSDOF 7
ENDMDL
MODEL 8
REMARK VINA RESULT:      -7.0     25.700     29.877
REMARK SMILES C=CC(=O)N1[C@@H]2CC[C@H]1C[C@H](Oc1cc(-c3cc(F)c(O)cc3CC)cn3cncc13)C2
REMARK SMILES IDX 13 1 14 2 15 3 26 4 27 5 28 6 29 7 30 8 31 9 12 10 11 11
REMARK SMILES IDX 5 12 6 13 9 14 7 15 32 16 8 17 10 18 3 19 4 20 2 21 1 22
REMARK SMILES IDX 16 23 17 24 23 25 18 26 22 27 20 28 19 29 24 30 25 31 21 32
REMARK H PARENT 21 33
ROOT
ATOM      1  C   UNL     1       4.248 -12.599 -11.584  1.00  0.00     0.146 A 
ATOM      2  C   UNL     1       3.233 -12.490 -10.697  1.00  0.00     0.059 A 
ATOM      3  C   UNL     1       1.865 -12.152 -11.109  1.00  0.00     0.002 A 
ATOM      4  C   UNL     1       1.626 -11.955 -12.420  1.00  0.00     0.101 A 
ATOM      5  N   UNL     1       2.675 -12.067 -13.326  1.00  0.00    -0.302 N 
ATOM      6  C   UNL     1       2.678 -11.906 -14.690  1.00  0.00     0.204 A 
ATOM      7  N   UNL     1       3.873 -12.093 -15.210  1.00  0.00    -0.244 NA
ATOM      8  C   UNL     1       4.685 -12.391 -14.141  1.00  0.00     0.143 A 
ATOM      9  C   UNL     1       3.973 -12.379 -12.962  1.00  0.00     0.107 A 
ENDROOT
BRANCH   1  10
ATOM     10  O   UNL     1       5.560 -12.903 -11.336  1.00  0.00    -0.488 OA
BRANCH  10  11
ATOM     11  C   UNL     1       6.129 -12.645 -10.048  1.00  0.00     0.177 C 
ATOM     12  N   UNL     1       7.889 -10.661  -8.895  1.00  0.00    -0.333 N 
ATOM     13  C   UNL     1       6.501 -10.681  -8.454  1.00  0.00     0.089 C 
ATOM     14  C   UNL     1       8.326 -12.045  -8.891  1.00  0.00     0.089 C 
ATOM     15  C   UNL     1       6.556 -11.655  -7.269  1.00  0.00     0.027 C 
ATOM     16  C   UNL     1       5.661 -11.236  -9.616  1.00  0.00     0.070 C 
ATOM     17  C   UNL     1       7.767 -12.560  -7.559  1.00  0.00     0.027 C 
ATOM     18  C   UNL     1       7.670 -12.743 -10.096  1.00  0.00     0.070 C 
BRANCH  12  19
ATOM     19  C   UNL     1       8.546  -9.722  -9.659  1.00  0.00     0.246 C 
ATOM     20  O   UNL     1       9.348 -10.034 -10.537  1.00  0.00    -0.270 OA
BRANCH  19  21
ATOM     21  C   UNL     1       8.252  -8.292  -9.371  1.00  0.00     0.063 C 
ATOM     22  C   UNL     1       7.797  -7.486 -10.339  1.00  0.00     0.014 C 
ENDBRANCH  19  21
ENDBRANCH  12  19
ENDBRANCH  10  11
ENDBRANCH   1  10
BRANCH   3  23
ATOM     23  C   UNL     1       0.750 -12.034 -10.153  1.00  0.00    -0.010 A 
ATOM     24  C   UNL     1       0.439 -13.159  -9.373  1.00  0.00     0.052 A 
ATOM     25  C   UNL     1       0.014 -10.837  -9.985  1.00  0.00    -0.036 A 
ATOM     26  C   UNL     1      -0.594 -13.095  -8.446  1.00  0.00     0.165 A 
ATOM     27  C   UNL     1      -1.031 -10.803  -9.041  1.00  0.00     0.053 A 
ATOM     28  C   UNL     1      -1.325 -11.928  -8.281  1.00  0.00     0.151 A 
ATOM     29  F   UNL     1      -0.889 -14.171  -7.702  1.00  0.00    -0.203 F 
BRANCH  25  30
ATOM     30  C   UNL     1       0.284  -9.587 -10.794  1.00  0.00     0.033 C 
ATOM     31  C   UNL     1       0.166  -8.325  -9.952  1.00  0.00     0.009 C 
ENDBRANCH  25  30
BRANCH  28  32
ATOM     32  O   UNL     1      -2.341 -11.856  -7.372  1.00  0.00    -0.505 OA
ATOM     33  H   UNL     1      -2.770 -10.988  -7.492  1.00  0.00     0.293 HD
ENDBRANCH  28  32
ENDBRANCH   3  23
TORSDOF 7
ENDMDL
MODEL 9
REMARK VINA RESULT:      -6.9      3.028      4.391
REMARK SMILES C=CC(=O)N1[C@@H]2CC[C@H]1C[C@H](Oc1cc(-c3cc(F)c(O)cc3CC)cn3cncc13)C2
REMARK SMILES IDX 13 1 14 2 15 3 26 4 27 5 28 6 29 7 30 8 31 9 12 10 11 11
REMARK SMILES IDX 5 12 6 13 9 14 7 15 32 16 8 17 10 18 3 19 4 20 2 21 1 22
REMARK SMILES IDX 16 23 17 24 23 25 18 26 22 27 20 28 19 29 24 30 25 31 21 32
REMARK H PARENT 21 33
ROOT
ATOM      1  C   UNL     1      16.179  17.029 -16.980  1.00  0.00     0.146 A 
ATOM      2  C   UNL     1      15.127  16.256 -16.628  1.00  0.00     0.059 A 
ATOM      3  C   UNL     1      14.656  16.158 -15.241  1.00  0.00     0.002 A 
ATOM      4  C   UNL     1      15.299  16.876 -14.299  1.00  0.00     0.101 A 
ATOM      5  N   UNL     1      16.381  17.667 -14.668  1.00  0.00    -0.302 N 
ATOM      6  C   UNL     1      17.186  18.469 -13.897  1.00  0.00     0.204 A 
ATOM      7  N   UNL     1      18.118  19.067 -14.607  1.00  0.00    -0.244 NA
ATOM      8  C   UNL     1      17.913  18.641 -15.898  1.00  0.00     0.143 A 
ATOM      9  C   UNL     1      16.847  17.771 -15.966  1.00  0.00     0.107 A 
ENDROOT
BRANCH   1  10
ATOM     10  O   UNL     1      16.720  17.208 -18.226  1.00  0.00    -0.488 OA
BRANCH  10  11
ATOM     11  C   UNL     1      16.025  17.982 -19.209  1.00  0.00     0.177 C 
ATOM     12  N   UNL     1      16.722  19.425 -21.616  1.00  0.00    -0.333 N 
ATOM     13  C   UNL     1      15.905  18.228 -21.751  1.00  0.00     0.089 C 
ATOM     14  C   UNL     1      16.147  20.175 -20.513  1.00  0.00     0.089 C 
ATOM     15  C   UNL     1      14.484  18.794 -21.628  1.00  0.00     0.027 C 
ATOM     16  C   UNL     1      16.258  17.300 -20.577  1.00  0.00     0.070 C 
ATOM     17  C   UNL     1      14.644  20.087 -20.807  1.00  0.00     0.027 C 
ATOM     18  C   UNL     1      16.521  19.445 -19.210  1.00  0.00     0.070 C 
BRANCH  12  19
ATOM     19  C   UNL     1      18.028  19.637 -21.999  1.00  0.00     0.246 C 
ATOM     20  O   UNL     1      18.484  20.762 -22.186  1.00  0.00    -0.270 OA
BRANCH  19  21
ATOM     21  C   UNL     1      18.878  18.430 -22.190  1.00  0.00     0.063 C 
ATOM     22  C   UNL     1      19.809  18.107 -21.283  1.00  0.00     0.014 C 
ENDBRANCH  19  21
ENDBRANCH  12  19
ENDBRANCH  10  11
ENDBRANCH   1  10
BRANCH   3  23
ATOM     23  C   UNL     1      13.508  15.323 -14.845  1.00  0.00    -0.010 A 
ATOM     24  C   UNL     1      12.788  15.705 -13.702  1.00  0.00     0.052 A 
ATOM     25  C   UNL     1      13.104  14.185 -15.582  1.00  0.00    -0.036 A 
ATOM     26  C   UNL     1      11.689  14.961 -13.294  1.00  0.00     0.165 A 
ATOM     27  C   UNL     1      11.988  13.446 -15.142  1.00  0.00     0.053 A 
ATOM     28  C   UNL     1      11.291  13.839 -14.007  1.00  0.00     0.151 A 
ATOM     29  F   UNL     1      11.004  15.327 -12.202  1.00  0.00    -0.203 F 
BRANCH  25  30
ATOM     30  C   UNL     1      13.833  13.706 -16.819  1.00  0.00     0.033 C 
ATOM     31  C   UNL     1      12.882  13.443 -17.977  1.00  0.00     0.009 C 
ENDBRANCH  25  30
BRANCH  28  32
ATOM     32  O   UNL     1      10.212  13.102 -13.614  1.00  0.00    -0.505 OA
ATOM     33  H   UNL     1       9.545  13.729 -13.278  1.00  0.00     0.293 HD
ENDBRANCH  28  32
ENDBRANCH   3  23
TORSDOF 7
ENDMDL
