MODEL 1
REMARK VINA RESULT:      -8.9      0.000      0.000
REMARK SMILES C=CC(=O)N1CCC[C@H](Oc2cc(-c3cc(F)c(O)cc3CC)cn3cncc23)C1
REMARK SMILES IDX 11 1 12 2 13 3 24 4 25 5 26 6 27 7 28 8 29 9 10 10 9 11 5 12
REMARK SMILES IDX 6 13 30 14 7 15 8 16 3 17 4 18 2 19 1 20 14 21 15 22 21 23
REMARK SMILES IDX 16 24 20 25 18 26 17 27 22 28 23 29 19 30
REMARK H PARENT 19 31
ROOT
ATOM      1  C   UNL     1      14.568  14.991 -17.114  1.00  0.00     0.146 A 
ATOM      2  C   UNL     1      13.718  14.719 -16.104  1.00  0.00     0.059 A 
ATOM      3  C   UNL     1      13.719  15.495 -14.862  1.00  0.00     0.002 A 
ATOM      4  C   UNL     1      14.581  16.527 -14.760  1.00  0.00     0.101 A 
ATOM      5  N   UNL     1      15.425  16.822 -15.828  1.00  0.00    -0.302 N 
ATOM      6  C   UNL     1      16.358  17.820 -15.962  1.00  0.00     0.204 A 
ATOM      7  N   UNL     1      16.954  17.789 -17.135  1.00  0.00    -0.244 NA
ATOM      8  C   UNL     1      16.388  16.729 -17.797  1.00  0.00     0.143 A 
ATOM      9  C   UNL     1      15.449  16.099 -17.011  1.00  0.00     0.107 A 
ENDROOT
BRANCH   1  10
ATOM     10  O   UNL     1      14.546  14.305 -18.304  1.00  0.00    -0.486 OA
BRANCH  10  11
ATOM     11  C   UNL     1      13.292  14.431 -18.996  1.00  0.00     0.193 C 
ATOM     12  N   UNL     1      11.511  12.967 -19.997  1.00  0.00    -0.335 N 
ATOM     13  C   UNL     1      11.666  13.609 -21.302  1.00  0.00     0.120 C 
ATOM     14  C   UNL     1      12.676  13.027 -19.107  1.00  0.00     0.164 C 
ATOM     15  C   UNL     1      12.244  15.015 -21.197  1.00  0.00     0.025 C 
ATOM     16  C   UNL     1      13.533  15.023 -20.387  1.00  0.00     0.049 C 
BRANCH  12  17
ATOM     17  C   UNL     1      10.457  12.067 -19.864  1.00  0.00     0.246 C 
ATOM     18  O   UNL     1      10.300  11.107 -20.616  1.00  0.00    -0.270 OA
BRANCH  17  19
ATOM     19  C   UNL     1       9.493  12.292 -18.752  1.00  0.00     0.063 C 
ATOM     20  C   UNL     1       9.110  13.537 -18.438  1.00  0.00     0.014 C 
ENDBRANCH  17  19
ENDBRANCH  12  17
ENDBRANCH  10  11
ENDBRANCH   1  10
BRANCH   3  21
ATOM     21  C   UNL     1      12.827  15.192 -13.728  1.00  0.00    -0.010 A 
ATOM     22  C   UNL     1      13.255  15.570 -12.445  1.00  0.00     0.052 A 
ATOM     23  C   UNL     1      11.590  14.527 -13.888  1.00  0.00    -0.036 A 
ATOM     24  C   UNL     1      12.457  15.299 -11.341  1.00  0.00     0.165 A 
ATOM     25  C   UNL     1      10.799  14.270 -12.752  1.00  0.00     0.053 A 
ATOM     26  C   UNL     1      11.237  14.655 -11.491  1.00  0.00     0.151 A 
ATOM     27  F   UNL     1      12.866  15.662 -10.117  1.00  0.00    -0.203 F 
BRANCH  23  28
ATOM     28  C   UNL     1      11.058  14.095 -15.239  1.00  0.00     0.033 C 
ATOM     29  C   UNL     1      10.778  12.600 -15.290  1.00  0.00     0.009 C 
ENDBRANCH  23  28
BRANCH  26  30
ATOM     30  O   UNL     1      10.445  14.385 -10.412  1.00  0.00    -0.505 OA
ATOM     31  H   UNL     1       9.977  15.212 -10.189  1.00  0.00     0.293 HD
ENDBRANCH  26  30
ENDBRANCH   3  21
TORSDOF 7
ENDMDL
MODEL 2
REMARK VINA RESULT:      -8.5      2.532      4.733
REMARK SMILES C=CC(=O)N1CCC[C@H](Oc2cc(-c3cc(F)c(O)cc3CC)cn3cncc23)C1
REMARK SMILES IDX 11 1 12 2 13 3 24 4 25 5 26 6 27 7 28 8 29 9 10 10 9 11 5 12
REMARK SMILES IDX 6 13 30 14 7 15 8 16 3 17 4 18 2 19 1 20 14 21 15 22 21 23
REMARK SMILES IDX 16 24 20 25 18 26 17 27 22 28 23 29 19 30
REMARK H PARENT 19 31
ROOT
ATOM      1  C   UNL     1      11.583  13.268 -17.726  1.00  0.00     0.146 A 
ATOM      2  C   UNL     1      12.054  13.665 -16.528  1.00  0.00     0.059 A 
ATOM      3  C   UNL     1      11.160  14.054 -15.435  1.00  0.00     0.002 A 
ATOM      4  C   UNL     1       9.830  13.975 -15.646  1.00  0.00     0.101 A 
ATOM      5  N   UNL     1       9.358  13.525 -16.876  1.00  0.00    -0.302 N 
ATOM      6  C   UNL     1       8.067  13.344 -17.310  1.00  0.00     0.204 A 
ATOM      7  N   UNL     1       8.018  12.883 -18.541  1.00  0.00    -0.244 NA
ATOM      8  C   UNL     1       9.328  12.754 -18.929  1.00  0.00     0.143 A 
ATOM      9  C   UNL     1      10.182  13.157 -17.928  1.00  0.00     0.107 A 
ENDROOT
BRANCH   1  10
ATOM     10  O   UNL     1      12.406  12.852 -18.744  1.00  0.00    -0.486 OA
BRANCH  10  11
ATOM     11  C   UNL     1      12.359  13.723 -19.888  1.00  0.00     0.193 C 
ATOM     12  N   UNL     1      12.982  13.705 -22.323  1.00  0.00    -0.335 N 
ATOM     13  C   UNL     1      13.829  14.885 -22.152  1.00  0.00     0.120 C 
ATOM     14  C   UNL     1      12.755  12.895 -21.121  1.00  0.00     0.164 C 
ATOM     15  C   UNL     1      13.420  15.730 -20.950  1.00  0.00     0.025 C 
ATOM     16  C   UNL     1      13.333  14.886 -19.687  1.00  0.00     0.049 C 
BRANCH  12  17
ATOM     17  C   UNL     1      12.784  13.262 -23.628  1.00  0.00     0.246 C 
ATOM     18  O   UNL     1      11.739  13.453 -24.247  1.00  0.00    -0.270 OA
BRANCH  17  19
ATOM     19  C   UNL     1      13.904  12.535 -24.287  1.00  0.00     0.063 C 
ATOM     20  C   UNL     1      13.883  11.198 -24.361  1.00  0.00     0.014 C 
ENDBRANCH  17  19
ENDBRANCH  12  17
ENDBRANCH  10  11
ENDBRANCH   1  10
BRANCH   3  21
ATOM     21  C   UNL     1      11.651  14.529 -14.129  1.00  0.00    -0.010 A 
ATOM     22  C   UNL     1      10.928  14.153 -12.985  1.00  0.00     0.052 A 
ATOM     23  C   UNL     1      12.794  15.351 -13.998  1.00  0.00    -0.036 A 
ATOM     24  C   UNL     1      11.343  14.582 -11.732  1.00  0.00     0.165 A 
ATOM     25  C   UNL     1      13.195  15.767 -12.713  1.00  0.00     0.053 A 
ATOM     26  C   UNL     1      12.468  15.382 -11.594  1.00  0.00     0.151 A 
ATOM     27  F   UNL     1      10.651  14.221 -10.641  1.00  0.00    -0.203 F 
BRANCH  23  28
ATOM     28  C   UNL     1      13.629  15.792 -15.182  1.00  0.00     0.033 C 
ATOM     29  C   UNL     1      14.849  16.593 -14.752  1.00  0.00     0.009 C 
ENDBRANCH  23  28
BRANCH  26  30
ATOM     30  O   UNL     1      12.885  15.807 -10.365  1.00  0.00    -0.505 OA
ATOM     31  H   UNL     1      13.648  15.253 -10.116  1.00  0.00     0.293 HD
ENDBRANCH  26  30
ENDBRANCH   3  21
TORSDOF 7
ENDMDL
MODEL 3
REMARK VINA RESULT:      -8.4      3.208      6.682
REMARK SMILES C=CC(=O)N1CCC[C@H](Oc2cc(-c3cc(F)c(O)cc3CC)cn3cncc23)C1
REMARK SMILES IDX 11 1 12 2 13 3 24 4 25 5 26 6 27 7 28 8 29 9 10 10 9 11 5 12
REMARK SMILES IDX 6 13 30 14 7 15 8 16 3 17 4 18 2 19 1 20 14 21 15 22 21 23
REMARK SMILES IDX 16 24 20 25 18 26 17 27 22 28 23 29 19 30
REMARK H PARENT 19 31
ROOT
ATOM      1  C   UNL     1      14.262  14.630 -18.322  1.00  0.00     0.146 A 
ATOM      2  C   UNL     1      15.297  15.140 -17.627  1.00  0.00     0.059 A 
ATOM      3  C   UNL     1      16.164  16.182 -18.181  1.00  0.00     0.002 A 
ATOM      4  C   UNL     1      15.881  16.652 -19.413  1.00  0.00     0.101 A 
ATOM      5  N   UNL     1      14.784  16.144 -20.105  1.00  0.00    -0.302 N 
ATOM      6  C   UNL     1      14.294  16.476 -21.344  1.00  0.00     0.204 A 
ATOM      7  N   UNL     1      13.219  15.784 -21.655  1.00  0.00    -0.244 NA
ATOM      8  C   UNL     1      12.993  14.967 -20.575  1.00  0.00     0.143 A 
ATOM      9  C   UNL     1      13.952  15.154 -19.605  1.00  0.00     0.107 A 
ENDROOT
BRANCH   1  10
ATOM     10  O   UNL     1      13.410  13.689 -17.798  1.00  0.00    -0.486 OA
BRANCH  10  11
ATOM     11  C   UNL     1      12.348  14.271 -17.022  1.00  0.00     0.193 C 
ATOM     12  N   UNL     1      11.560  14.366 -14.637  1.00  0.00    -0.335 N 
ATOM     13  C   UNL     1      10.251  13.832 -15.010  1.00  0.00     0.120 C 
ATOM     14  C   UNL     1      12.671  14.036 -15.537  1.00  0.00     0.164 C 
ATOM     15  C   UNL     1       9.909  14.092 -16.473  1.00  0.00     0.025 C 
ATOM     16  C   UNL     1      11.020  13.607 -17.394  1.00  0.00     0.049 C 
BRANCH  12  17
ATOM     17  C   UNL     1      11.707  14.799 -13.321  1.00  0.00     0.246 C 
ATOM     18  O   UNL     1      10.953  14.448 -12.416  1.00  0.00    -0.270 OA
BRANCH  17  19
ATOM     19  C   UNL     1      12.837  15.719 -13.020  1.00  0.00     0.063 C 
ATOM     20  C   UNL     1      13.239  15.896 -11.755  1.00  0.00     0.014 C 
ENDBRANCH  17  19
ENDBRANCH  12  17
ENDBRANCH  10  11
ENDBRANCH   1  10
BRANCH   3  21
ATOM     21  C   UNL     1      17.325  16.727 -17.456  1.00  0.00    -0.010 A 
ATOM     22  C   UNL     1      18.593  16.558 -18.037  1.00  0.00     0.052 A 
ATOM     23  C   UNL     1      17.206  17.382 -16.209  1.00  0.00    -0.036 A 
ATOM     24  C   UNL     1      19.721  17.044 -17.390  1.00  0.00     0.165 A 
ATOM     25  C   UNL     1      18.367  17.870 -15.578  1.00  0.00     0.053 A 
ATOM     26  C   UNL     1      19.612  17.697 -16.170  1.00  0.00     0.151 A 
ATOM     27  F   UNL     1      20.931  16.883 -17.946  1.00  0.00    -0.203 F 
BRANCH  23  28
ATOM     28  C   UNL     1      15.874  17.609 -15.524  1.00  0.00     0.033 C 
ATOM     29  C   UNL     1      15.950  17.341 -14.028  1.00  0.00     0.009 C 
ENDBRANCH  23  28
BRANCH  26  30
ATOM     30  O   UNL     1      20.715  18.180 -15.527  1.00  0.00    -0.505 OA
ATOM     31  H   UNL     1      20.478  18.272 -14.585  1.00  0.00     0.293 HD
ENDBRANCH  26  30
ENDBRANCH   3  21
TORSDOF 7
ENDMDL
MODEL 4
REMARK VINA RESULT:      -8.2      3.188      5.291
REMARK SMILES C=CC(=O)N1CCC[C@H](Oc2cc(-c3cc(F)c(O)cc3CC)cn3cncc23)C1
REMARK SMILES IDX 11 1 12 2 13 3 24 4 25 5 26 6 27 7 28 8 29 9 10 10 9 11 5 12
REMARK SMILES IDX 6 13 30 14 7 15 8 16 3 17 4 18 2 19 1 20 14 21 15 22 21 23
REMARK SMILES IDX 16 24 20 25 18 26 17 27 22 28 23 29 19 30
REMARK H PARENT 19 31
ROOT
ATOM      1  C   UNL     1      10.627  14.544 -17.141  1.00  0.00     0.146 A 
ATOM      2  C   UNL     1      11.769  15.134 -16.737  1.00  0.00     0.059 A 
ATOM      3  C   UNL     1      12.181  15.141 -15.331  1.00  0.00     0.002 A 
ATOM      4  C   UNL     1      11.396  14.505 -14.438  1.00  0.00     0.101 A 
ATOM      5  N   UNL     1      10.239  13.865 -14.877  1.00  0.00    -0.302 N 
ATOM      6  C   UNL     1       9.307  13.148 -14.168  1.00  0.00     0.204 A 
ATOM      7  N   UNL     1       8.352  12.676 -14.939  1.00  0.00    -0.244 NA
ATOM      8  C   UNL     1       8.670  13.098 -16.205  1.00  0.00     0.143 A 
ATOM      9  C   UNL     1       9.823  13.850 -16.199  1.00  0.00     0.107 A 
ENDROOT
BRANCH   1  10
ATOM     10  O   UNL     1      10.252  14.486 -18.462  1.00  0.00    -0.486 OA
BRANCH  10  11
ATOM     11  C   UNL     1      10.934  13.450 -19.189  1.00  0.00     0.193 C 
ATOM     12  N   UNL     1      12.137  13.128 -21.373  1.00  0.00    -0.335 N 
ATOM     13  C   UNL     1      11.238  12.037 -21.748  1.00  0.00     0.120 C 
ATOM     14  C   UNL     1      11.604  14.100 -20.411  1.00  0.00     0.164 C 
ATOM     15  C   UNL     1      10.597  11.365 -20.539  1.00  0.00     0.025 C 
ATOM     16  C   UNL     1       9.926  12.387 -19.632  1.00  0.00     0.049 C 
BRANCH  12  17
ATOM     17  C   UNL     1      13.227  13.355 -22.208  1.00  0.00     0.246 C 
ATOM     18  O   UNL     1      13.795  14.443 -22.285  1.00  0.00    -0.270 OA
BRANCH  17  19
ATOM     19  C   UNL     1      13.716  12.214 -23.030  1.00  0.00     0.063 C 
ATOM     20  C   UNL     1      13.837  12.346 -24.357  1.00  0.00     0.014 C 
ENDBRANCH  17  19
ENDBRANCH  12  17
ENDBRANCH  10  11
ENDBRANCH   1  10
BRANCH   3  21
ATOM     21  C   UNL     1      13.405  15.813 -14.859  1.00  0.00    -0.010 A 
ATOM     22  C   UNL     1      14.395  16.105 -15.811  1.00  0.00     0.052 A 
ATOM     23  C   UNL     1      13.615  16.147 -13.502  1.00  0.00    -0.036 A 
ATOM     24  C   UNL     1      15.571  16.729 -15.417  1.00  0.00     0.165 A 
ATOM     25  C   UNL     1      14.815  16.784 -13.132  1.00  0.00     0.053 A 
ATOM     26  C   UNL     1      15.782  17.068 -14.088  1.00  0.00     0.151 A 
ATOM     27  F   UNL     1      16.516  17.008 -16.327  1.00  0.00    -0.203 F 
BRANCH  23  28
ATOM     28  C   UNL     1      12.592  15.871 -12.420  1.00  0.00     0.033 C 
ATOM     29  C   UNL     1      13.224  15.250 -11.183  1.00  0.00     0.009 C 
ENDBRANCH  23  28
BRANCH  26  30
ATOM     30  O   UNL     1      16.934  17.683 -13.691  1.00  0.00    -0.505 OA
ATOM     31  H   UNL     1      17.665  17.261 -14.181  1.00  0.00     0.293 HD
ENDBRANCH  26  30
ENDBRANCH   3  21
TORSDOF 7
ENDMDL
MODEL 5
REMARK VINA RESULT:      -7.8      3.236      5.916
REMARK SMILES C=CC(=O)N1CCC[C@H](Oc2cc(-c3cc(F)c(O)cc3CC)cn3cncc23)C1
REMARK SMILES IDX 11 1 12 2 13 3 24 4 25 5 26 6 27 7 28 8 29 9 10 10 9 11 5 12
REMARK SMILES IDX 6 13 30 14 7 15 8 16 3 17 4 18 2 19 1 20 14 21 15 22 21 23
REMARK SMILES IDX 16 24 20 25 18 26 17 27 22 28 23 29 19 30
REMARK H PARENT 19 31
ROOT
ATOM      1  C   UNL     1      14.166  15.249 -15.512  1.00  0.00     0.146 A 
ATOM      2  C   UNL     1      13.179  14.737 -16.272  1.00  0.00     0.059 A 
ATOM      3  C   UNL     1      11.832  14.512 -15.742  1.00  0.00     0.002 A 
ATOM      4  C   UNL     1      11.587  14.865 -14.464  1.00  0.00     0.101 A 
ATOM      5  N   UNL     1      12.606  15.431 -13.702  1.00  0.00    -0.302 N 
ATOM      6  C   UNL     1      12.590  15.881 -12.405  1.00  0.00     0.204 A 
ATOM      7  N   UNL     1      13.753  16.372 -12.035  1.00  0.00    -0.244 NA
ATOM      8  C   UNL     1      14.564  16.241 -13.134  1.00  0.00     0.143 A 
ATOM      9  C   UNL     1      13.890  15.648 -14.177  1.00  0.00     0.107 A 
ENDROOT
BRANCH   1  10
ATOM     10  O   UNL     1      15.420  15.513 -16.008  1.00  0.00    -0.486 OA
BRANCH  10  11
ATOM     11  C   UNL     1      15.465  16.712 -16.799  1.00  0.00     0.193 C 
ATOM     12  N   UNL     1      16.469  17.541 -18.950  1.00  0.00    -0.335 N 
ATOM     13  C   UNL     1      17.147  18.634 -18.254  1.00  0.00     0.120 C 
ATOM     14  C   UNL     1      16.140  16.365 -18.136  1.00  0.00     0.164 C 
ATOM     15  C   UNL     1      16.462  19.007 -16.944  1.00  0.00     0.025 C 
ATOM     16  C   UNL     1      16.265  17.786 -16.057  1.00  0.00     0.049 C 
BRANCH  12  17
ATOM     17  C   UNL     1      16.532  17.551 -20.341  1.00  0.00     0.246 C 
ATOM     18  O   UNL     1      17.479  18.028 -20.963  1.00  0.00    -0.270 OA
BRANCH  17  19
ATOM     19  C   UNL     1      15.395  16.946 -21.087  1.00  0.00     0.063 C 
ATOM     20  C   UNL     1      14.315  17.683 -21.379  1.00  0.00     0.014 C 
ENDBRANCH  17  19
ENDBRANCH  12  17
ENDBRANCH  10  11
ENDBRANCH   1  10
BRANCH   3  21
ATOM     21  C   UNL     1      10.746  13.916 -16.541  1.00  0.00    -0.010 A 
ATOM     22  C   UNL     1       9.694  14.756 -16.939  1.00  0.00     0.052 A 
ATOM     23  C   UNL     1      10.724  12.547 -16.895  1.00  0.00    -0.036 A 
ATOM     24  C   UNL     1       8.642  14.243 -17.685  1.00  0.00     0.165 A 
ATOM     25  C   UNL     1       9.646  12.055 -17.657  1.00  0.00     0.053 A 
ATOM     26  C   UNL     1       8.616  12.902 -18.044  1.00  0.00     0.151 A 
ATOM     27  F   UNL     1       7.638  15.047 -18.064  1.00  0.00    -0.203 F 
BRANCH  23  28
ATOM     28  C   UNL     1      11.825  11.581 -16.511  1.00  0.00     0.033 C 
ATOM     29  C   UNL     1      11.466  10.771 -15.274  1.00  0.00     0.009 C 
ENDBRANCH  23  28
BRANCH  26  30
ATOM     30  O   UNL     1       7.587  12.389 -18.779  1.00  0.00    -0.505 OA
ATOM     31  H   UNL     1       7.881  12.373 -19.709  1.00  0.00     0.293 HD
ENDBRANCH  26  30
ENDBRANCH   3  21
TORSDOF 7
ENDMDL
MODEL 6
REMARK VINA RESULT:      -7.8      3.155      5.385
REMARK SMILES C=CC(=O)N1CCC[C@H](Oc2cc(-c3cc(F)c(O)cc3CC)cn3cncc23)C1
REMARK SMILES IDX 11 1 12 2 13 3 24 4 25 5 26 6 27 7 28 8 29 9 10 10 9 11 5 12
REMARK SMILES IDX 6 13 30 14 7 15 8 16 3 17 4 18 2 19 1 20 14 21 15 22 21 23
REMARK SMILES IDX 16 24 20 25 18 26 17 27 22 28 23 29 19 30
REMARK H PARENT 19 31
ROOT
ATOM      1  C   UNL     1      11.716  14.137 -17.938  1.00  0.00     0.146 A 
ATOM      2  C   UNL     1      12.661  14.931 -17.400  1.00  0.00     0.059 A 
ATOM      3  C   UNL     1      13.090  14.790 -16.007  1.00  0.00     0.002 A 
ATOM      4  C   UNL     1      12.532  13.809 -15.269  1.00  0.00     0.101 A 
ATOM      5  N   UNL     1      11.585  12.970 -15.850  1.00  0.00    -0.302 N 
ATOM      6  C   UNL     1      10.904  11.906 -15.311  1.00  0.00     0.204 A 
ATOM      7  N   UNL     1      10.096  11.341 -16.182  1.00  0.00    -0.244 NA
ATOM      8  C   UNL     1      10.254  12.062 -17.339  1.00  0.00     0.143 A 
ATOM      9  C   UNL     1      11.157  13.087 -17.163  1.00  0.00     0.107 A 
ENDROOT
BRANCH   1  10
ATOM     10  O   UNL     1      11.338  14.224 -19.256  1.00  0.00    -0.486 OA
BRANCH  10  11
ATOM     11  C   UNL     1      12.442  14.056 -20.163  1.00  0.00     0.193 C 
ATOM     12  N   UNL     1      13.161  14.810 -22.451  1.00  0.00    -0.335 N 
ATOM     13  C   UNL     1      13.294  13.426 -22.904  1.00  0.00     0.120 C 
ATOM     14  C   UNL     1      12.240  15.036 -21.331  1.00  0.00     0.164 C 
ATOM     15  C   UNL     1      13.529  12.454 -21.754  1.00  0.00     0.025 C 
ATOM     16  C   UNL     1      12.471  12.613 -20.672  1.00  0.00     0.049 C 
BRANCH  12  17
ATOM     17  C   UNL     1      13.606  15.800 -23.323  1.00  0.00     0.246 C 
ATOM     18  O   UNL     1      12.886  16.306 -24.181  1.00  0.00    -0.270 OA
BRANCH  17  19
ATOM     19  C   UNL     1      15.017  16.254 -23.189  1.00  0.00     0.063 C 
ATOM     20  C   UNL     1      15.310  17.316 -22.427  1.00  0.00     0.014 C 
ENDBRANCH  17  19
ENDBRANCH  12  17
ENDBRANCH  10  11
ENDBRANCH   1  10
BRANCH   3  21
ATOM     21  C   UNL     1      14.093  15.673 -15.385  1.00  0.00    -0.010 A 
ATOM     22  C   UNL     1      15.162  16.109 -16.185  1.00  0.00     0.052 A 
ATOM     23  C   UNL     1      14.024  16.068 -14.029  1.00  0.00    -0.036 A 
ATOM     24  C   UNL     1      16.140  16.934 -15.646  1.00  0.00     0.165 A 
ATOM     25  C   UNL     1      15.027  16.911 -13.510  1.00  0.00     0.053 A 
ATOM     26  C   UNL     1      16.075  17.334 -14.318  1.00  0.00     0.151 A 
ATOM     27  F   UNL     1      17.159  17.350 -16.412  1.00  0.00    -0.203 F 
BRANCH  23  28
ATOM     28  C   UNL     1      12.901  15.646 -13.106  1.00  0.00     0.033 C 
ATOM     29  C   UNL     1      13.260  15.847 -11.642  1.00  0.00     0.009 C 
ENDBRANCH  23  28
BRANCH  26  30
ATOM     30  O   UNL     1      17.030  18.146 -13.779  1.00  0.00    -0.505 OA
ATOM     31  H   UNL     1      17.596  18.447 -14.515  1.00  0.00     0.293 HD
ENDBRANCH  26  30
ENDBRANCH   3  21
TORSDOF 7
ENDMDL
MODEL 7
REMARK VINA RESULT:      -7.3     26.254     29.068
REMARK SMILES C=CC(=O)N1CCC[C@H](Oc2cc(-c3cc(F)c(O)cc3CC)cn3cncc23)C1
REMARK SMILES IDX 11 1 12 2 13 3 24 4 25 5 26 6 27 7 28 8 29 9 10 10 9 11 5 12
REMARK SMILES IDX 6 13 30 14 7 15 8 16 3 17 4 18 2 19 1 20 14 21 15 22 21 23
REMARK SMILES IDX 16 24 20 25 18 26 17 27 22 28 23 29 19 30
REMARK H PARENT 19 31
ROOT
ATOM      1  C   UNL     1       3.918 -12.654 -11.417  1.00  0.00     0.146 A 
ATOM      2  C   UNL     1       2.873 -12.328 -10.633  1.00  0.00     0.059 A 
ATOM      3  C   UNL     1       1.666 -11.697 -11.173  1.00  0.00     0.002 A 
ATOM      4  C   UNL     1       1.609 -11.474 -12.502  1.00  0.00     0.101 A 
ATOM      5  N   UNL     1       2.681 -11.852 -13.306  1.00  0.00    -0.302 N 
ATOM      6  C   UNL     1       2.841 -11.746 -14.666  1.00  0.00     0.204 A 
ATOM      7  N   UNL     1       3.994 -12.234 -15.070  1.00  0.00    -0.244 NA
ATOM      8  C   UNL     1       4.615 -12.680 -13.929  1.00  0.00     0.143 A 
ATOM      9  C   UNL     1       3.836 -12.444 -12.819  1.00  0.00     0.107 A 
ENDROOT
BRANCH   1  10
ATOM     10  O   UNL     1       5.035 -13.291 -10.934  1.00  0.00    -0.486 OA
BRANCH  10  11
ATOM     11  C   UNL     1       5.675 -12.563  -9.872  1.00  0.00     0.193 C 
ATOM     12  N   UNL     1       7.709 -11.134  -9.495  1.00  0.00    -0.335 N 
ATOM     13  C   UNL     1       8.175 -12.017  -8.427  1.00  0.00     0.120 C 
ATOM     14  C   UNL     1       6.818 -11.742 -10.490  1.00  0.00     0.164 C 
ATOM     15  C   UNL     1       7.041 -12.809  -7.785  1.00  0.00     0.025 C 
ATOM     16  C   UNL     1       6.221 -13.546  -8.834  1.00  0.00     0.049 C 
BRANCH  12  17
ATOM     17  C   UNL     1       8.418  -9.951  -9.682  1.00  0.00     0.246 C 
ATOM     18  O   UNL     1       9.553  -9.921 -10.155  1.00  0.00    -0.270 OA
BRANCH  17  19
ATOM     19  C   UNL     1       7.752  -8.678  -9.293  1.00  0.00     0.063 C 
ATOM     20  C   UNL     1       7.960  -7.566 -10.010  1.00  0.00     0.014 C 
ENDBRANCH  17  19
ENDBRANCH  12  17
ENDBRANCH  10  11
ENDBRANCH   1  10
BRANCH   3  21
ATOM     21  C   UNL     1       0.526 -11.295 -10.329  1.00  0.00    -0.010 A 
ATOM     22  C   UNL     1       0.164  -9.938 -10.328  1.00  0.00     0.052 A 
ATOM     23  C   UNL     1      -0.185 -12.213  -9.522  1.00  0.00    -0.036 A 
ATOM     24  C   UNL     1      -0.896  -9.505  -9.543  1.00  0.00     0.165 A 
ATOM     25  C   UNL     1      -1.260 -11.746  -8.741  1.00  0.00     0.053 A 
ATOM     26  C   UNL     1      -1.606 -10.401  -8.755  1.00  0.00     0.151 A 
ATOM     27  F   UNL     1      -1.241  -8.210  -9.543  1.00  0.00    -0.203 F 
BRANCH  23  28
ATOM     28  C   UNL     1       0.140 -13.691  -9.477  1.00  0.00     0.033 C 
ATOM     29  C   UNL     1      -0.918 -14.484  -8.725  1.00  0.00     0.009 C 
ENDBRANCH  23  28
BRANCH  26  30
ATOM     30  O   UNL     1      -2.650  -9.985  -7.981  1.00  0.00    -0.505 OA
ATOM     31  H   UNL     1      -3.446 -10.001  -8.546  1.00  0.00     0.293 HD
ENDBRANCH  26  30
ENDBRANCH   3  21
TORSDOF 7
ENDMDL
MODEL 8
REMARK VINA RESULT:      -7.2     26.539     29.075
REMARK SMILES C=CC(=O)N1CCC[C@H](Oc2cc(-c3cc(F)c(O)cc3CC)cn3cncc23)C1
REMARK SMILES IDX 11 1 12 2 13 3 24 4 25 5 26 6 27 7 28 8 29 9 10 10 9 11 5 12
REMARK SMILES IDX 6 13 30 14 7 15 8 16 3 17 4 18 2 19 1 20 14 21 15 22 21 23
REMARK SMILES IDX 16 24 20 25 18 26 17 27 22 28 23 29 19 30
REMARK H PARENT 19 31
ROOT
ATOM      1  C   UNL     1       4.665 -11.721  -8.768  1.00  0.00     0.146 A 
ATOM      2  C   UNL     1       4.894 -12.379  -9.921  1.00  0.00     0.059 A 
ATOM      3  C   UNL     1       5.973 -11.990 -10.833  1.00  0.00     0.002 A 
ATOM      4  C   UNL     1       6.767 -10.962 -10.472  1.00  0.00     0.101 A 
ATOM      5  N   UNL     1       6.543 -10.317  -9.258  1.00  0.00    -0.302 N 
ATOM      6  C   UNL     1       7.223  -9.275  -8.677  1.00  0.00     0.204 A 
ATOM      7  N   UNL     1       6.722  -8.947  -7.505  1.00  0.00    -0.244 NA
ATOM      8  C   UNL     1       5.673  -9.811  -7.309  1.00  0.00     0.143 A 
ATOM      9  C   UNL     1       5.526 -10.661  -8.381  1.00  0.00     0.107 A 
ENDROOT
BRANCH   1  10
ATOM     10  O   UNL     1       3.690 -12.104  -7.879  1.00  0.00    -0.486 OA
BRANCH  10  11
ATOM     11  C   UNL     1       2.392 -12.211  -8.490  1.00  0.00     0.193 C 
ATOM     12  N   UNL     1       0.411 -10.759  -9.023  1.00  0.00    -0.335 N 
ATOM     13  C   UNL     1      -0.482 -11.637  -8.267  1.00  0.00     0.120 C 
ATOM     14  C   UNL     1       1.825 -10.789  -8.635  1.00  0.00     0.164 C 
ATOM     15  C   UNL     1       0.058 -13.058  -8.149  1.00  0.00     0.025 C 
ATOM     16  C   UNL     1       1.479 -13.065  -7.606  1.00  0.00     0.049 C 
BRANCH  12  17
ATOM     17  C   UNL     1      -0.190  -9.737  -9.754  1.00  0.00     0.246 C 
ATOM     18  O   UNL     1      -1.113  -9.055  -9.314  1.00  0.00    -0.270 OA
BRANCH  17  19
ATOM     19  C   UNL     1       0.329  -9.472 -11.124  1.00  0.00     0.063 C 
ATOM     20  C   UNL     1       0.551 -10.490 -11.965  1.00  0.00     0.014 C 
ENDBRANCH  17  19
ENDBRANCH  12  17
ENDBRANCH  10  11
ENDBRANCH   1  10
BRANCH   3  21
ATOM     21  C   UNL     1       6.218 -12.668 -12.118  1.00  0.00    -0.010 A 
ATOM     22  C   UNL     1       7.473 -13.269 -12.308  1.00  0.00     0.052 A 
ATOM     23  C   UNL     1       5.254 -12.713 -13.152  1.00  0.00    -0.036 A 
ATOM     24  C   UNL     1       7.759 -13.913 -13.504  1.00  0.00     0.165 A 
ATOM     25  C   UNL     1       5.570 -13.378 -14.353  1.00  0.00     0.053 A 
ATOM     26  C   UNL     1       6.815 -13.969 -14.521  1.00  0.00     0.151 A 
ATOM     27  F   UNL     1       8.957 -14.487 -13.684  1.00  0.00    -0.203 F 
BRANCH  23  28
ATOM     28  C   UNL     1       3.878 -12.096 -13.019  1.00  0.00     0.033 C 
ATOM     29  C   UNL     1       3.168 -11.994 -14.361  1.00  0.00     0.009 C 
ENDBRANCH  23  28
BRANCH  26  30
ATOM     30  O   UNL     1       7.086 -14.601 -15.700  1.00  0.00    -0.505 OA
ATOM     31  H   UNL     1       6.394 -14.332 -16.333  1.00  0.00     0.293 HD
ENDBRANCH  26  30
ENDBRANCH   3  21
TORSDOF 7
ENDMDL
MODEL 9
REMARK VINA RESULT:      -7.2      3.356      8.312
REMARK SMILES C=CC(=O)N1CCC[C@H](Oc2cc(-c3cc(F)c(O)cc3CC)cn3cncc23)C1
REMARK SMILES IDX 11 1 12 2 13 3 24 4 25 5 26 6 27 7 28 8 29 9 10 10 9 11 5 12
REMARK SMILES IDX 6 13 30 14 7 15 8 16 3 17 4 18 2 19 1 20 14 21 15 22 21 23
REMARK SMILES IDX 16 24 20 25 18 26 17 27 22 28 23 29 19 30
REMARK H PARENT 19 31
ROOT
ATOM      1  C   UNL     1      11.596  14.601 -17.167  1.00  0.00     0.146 A 
ATOM      2  C   UNL     1      11.931  14.450 -18.463  1.00  0.00     0.059 A 
ATOM      3  C   UNL     1      11.452  13.318 -19.259  1.00  0.00     0.002 A 
ATOM      4  C   UNL     1      10.629  12.430 -18.666  1.00  0.00     0.101 A 
ATOM      5  N   UNL     1      10.260  12.620 -17.337  1.00  0.00    -0.302 N 
ATOM      6  C   UNL     1       9.430  11.872 -16.538  1.00  0.00     0.204 A 
ATOM      7  N   UNL     1       9.309  12.381 -15.332  1.00  0.00    -0.244 NA
ATOM      8  C   UNL     1      10.089  13.511 -15.339  1.00  0.00     0.143 A 
ATOM      9  C   UNL     1      10.704  13.678 -16.560  1.00  0.00     0.107 A 
ENDROOT
BRANCH   1  10
ATOM     10  O   UNL     1      11.996  15.683 -16.420  1.00  0.00    -0.486 OA
BRANCH  10  11
ATOM     11  C   UNL     1      12.829  15.314 -15.307  1.00  0.00     0.193 C 
ATOM     12  N   UNL     1      12.824  15.447 -12.797  1.00  0.00    -0.335 N 
ATOM     13  C   UNL     1      14.095  16.170 -12.797  1.00  0.00     0.120 C 
ATOM     14  C   UNL     1      12.022  15.554 -14.020  1.00  0.00     0.164 C 
ATOM     15  C   UNL     1      14.916  15.909 -14.055  1.00  0.00     0.025 C 
ATOM     16  C   UNL     1      14.098  16.169 -15.312  1.00  0.00     0.049 C 
BRANCH  12  17
ATOM     17  C   UNL     1      12.331  15.051 -11.556  1.00  0.00     0.246 C 
ATOM     18  O   UNL     1      13.018  15.043 -10.537  1.00  0.00    -0.270 OA
BRANCH  17  19
ATOM     19  C   UNL     1      10.905  14.630 -11.483  1.00  0.00     0.063 C 
ATOM     20  C   UNL     1      10.477  13.886 -10.455  1.00  0.00     0.014 C 
ENDBRANCH  17  19
ENDBRANCH  12  17
ENDBRANCH  10  11
ENDBRANCH   1  10
BRANCH   3  21
ATOM     21  C   UNL     1      11.836  13.110 -20.667  1.00  0.00    -0.010 A 
ATOM     22  C   UNL     1      12.848  13.931 -21.193  1.00  0.00     0.052 A 
ATOM     23  C   UNL     1      11.216  12.144 -21.491  1.00  0.00    -0.036 A 
ATOM     24  C   UNL     1      13.240  13.783 -22.517  1.00  0.00     0.165 A 
ATOM     25  C   UNL     1      11.638  12.013 -22.829  1.00  0.00     0.053 A 
ATOM     26  C   UNL     1      12.642  12.831 -23.331  1.00  0.00     0.151 A 
ATOM     27  F   UNL     1      14.207  14.566 -23.017  1.00  0.00    -0.203 F 
BRANCH  23  28
ATOM     28  C   UNL     1      10.125  11.219 -20.995  1.00  0.00     0.033 C 
ATOM     29  C   UNL     1       8.920  11.208 -21.924  1.00  0.00     0.009 C 
ENDBRANCH  23  28
BRANCH  26  30
ATOM     30  O   UNL     1      13.022  12.677 -24.632  1.00  0.00    -0.505 OA
ATOM     31  H   UNL     1      12.323  13.077 -25.183  1.00  0.00     0.293 HD
ENDBRANCH  26  30
ENDBRANCH   3  21
TORSDOF 7
ENDMDL
