MODEL 1
REMARK VINA RESULT:      -7.4      0.000      0.000
REMARK SMILES Brc1ccc(-c2csc(-c3cccnc3)n2)cn1
REMARK SMILES IDX 1 1 2 2 3 3 4 4 5 5 17 6 18 7 6 8 7 9 16 10 8 11 9 12 10 13
REMARK SMILES IDX 11 14 15 15 12 16 14 17 13 18
REMARK H PARENT
ROOT
ATOM      1  Br  UNL     1      88.188  42.617  43.425  1.00  0.00    -0.029 Br
ATOM      2  C   UNL     1      87.163  44.212  43.465  1.00  0.00     0.106 A 
ATOM      3  C   UNL     1      87.510  45.252  42.615  1.00  0.00     0.037 A 
ATOM      4  C   UNL     1      86.750  46.424  42.649  1.00  0.00     0.015 A 
ATOM      5  C   UNL     1      85.667  46.532  43.527  1.00  0.00     0.019 A 
ATOM      6  C   UNL     1      85.409  45.424  44.335  1.00  0.00     0.122 A 
ATOM      7  N   UNL     1      86.128  44.272  44.324  1.00  0.00    -0.249 NA
ENDROOT
BRANCH   5   8
ATOM      8  C   UNL     1      84.825  47.717  43.627  1.00  0.00     0.083 A 
ATOM      9  C   UNL     1      85.277  49.021  43.600  1.00  0.00     0.096 A 
ATOM     10  N   UNL     1      83.449  47.597  43.760  1.00  0.00    -0.236 NA
ATOM     11  S   UNL     1      83.960  50.107  43.745  1.00  0.00    -0.122 S 
ATOM     12  C   UNL     1      82.865  48.779  43.833  1.00  0.00     0.125 A 
BRANCH  12  13
ATOM     13  C   UNL     1      81.412  48.965  43.978  1.00  0.00     0.029 A 
ATOM     14  C   UNL     1      80.746  49.898  43.170  1.00  0.00     0.014 A 
ATOM     15  C   UNL     1      80.617  48.264  44.883  1.00  0.00     0.122 A 
ATOM     16  C   UNL     1      79.370  50.091  43.290  1.00  0.00     0.021 A 
ATOM     17  N   UNL     1      79.275  48.427  45.027  1.00  0.00    -0.264 NA
ATOM     18  C   UNL     1      78.684  49.337  44.226  1.00  0.00     0.111 A 
ENDBRANCH  12  13
ENDBRANCH   5   8
TORSDOF 2
ENDMDL
MODEL 2
REMARK VINA RESULT:      -7.0      4.787      7.014
REMARK SMILES Brc1ccc(-c2csc(-c3cccnc3)n2)cn1
REMARK SMILES IDX 1 1 2 2 3 3 4 4 5 5 17 6 18 7 6 8 7 9 16 10 8 11 9 12 10 13
REMARK SMILES IDX 11 14 15 15 12 16 14 17 13 18
REMARK H PARENT
ROOT
ATOM      1  Br  UNL     1      87.912  42.946  43.000  1.00  0.00    -0.029 Br
ATOM      2  C   UNL     1      87.803  44.819  42.734  1.00  0.00     0.106 A 
ATOM      3  C   UNL     1      88.907  45.490  42.230  1.00  0.00     0.037 A 
ATOM      4  C   UNL     1      88.820  46.871  42.035  1.00  0.00     0.015 A 
ATOM      5  C   UNL     1      87.637  47.549  42.347  1.00  0.00     0.019 A 
ATOM      6  C   UNL     1      86.590  46.774  42.847  1.00  0.00     0.122 A 
ATOM      7  N   UNL     1      86.645  45.432  43.046  1.00  0.00    -0.249 NA
ENDROOT
BRANCH   5   8
ATOM      8  C   UNL     1      87.462  48.986  42.175  1.00  0.00     0.083 A 
ATOM      9  C   UNL     1      86.463  49.742  42.755  1.00  0.00     0.096 A 
ATOM     10  N   UNL     1      88.334  49.714  41.379  1.00  0.00    -0.236 NA
ATOM     11  S   UNL     1      86.621  51.383  42.294  1.00  0.00    -0.122 S 
ATOM     12  C   UNL     1      88.010  50.994  41.352  1.00  0.00     0.125 A 
BRANCH  12  13
ATOM     13  C   UNL     1      88.756  52.009  40.590  1.00  0.00     0.029 A 
ATOM     14  C   UNL     1      89.858  52.648  41.176  1.00  0.00     0.014 A 
ATOM     15  C   UNL     1      88.444  52.399  39.288  1.00  0.00     0.122 A 
ATOM     16  C   UNL     1      90.578  53.613  40.473  1.00  0.00     0.021 A 
ATOM     17  N   UNL     1      89.124  53.335  38.575  1.00  0.00    -0.264 NA
ATOM     18  C   UNL     1      90.176  53.920  39.185  1.00  0.00     0.111 A 
ENDBRANCH  12  13
ENDBRANCH   5   8
TORSDOF 2
ENDMDL
MODEL 3
REMARK VINA RESULT:      -6.9      7.012      9.417
REMARK SMILES Brc1ccc(-c2csc(-c3cccnc3)n2)cn1
REMARK SMILES IDX 1 1 2 2 3 3 4 4 5 5 17 6 18 7 6 8 7 9 16 10 8 11 9 12 10 13
REMARK SMILES IDX 11 14 15 15 12 16 14 17 13 18
REMARK H PARENT
ROOT
ATOM      1  Br  UNL     1      84.924  58.616  45.665  1.00  0.00    -0.029 Br
ATOM      2  C   UNL     1      85.515  56.814  45.672  1.00  0.00     0.106 A 
ATOM      3  C   UNL     1      85.669  56.164  46.887  1.00  0.00     0.037 A 
ATOM      4  C   UNL     1      86.104  54.836  46.885  1.00  0.00     0.015 A 
ATOM      5  C   UNL     1      86.375  54.190  45.675  1.00  0.00     0.019 A 
ATOM      6  C   UNL     1      86.185  54.939  44.514  1.00  0.00     0.122 A 
ATOM      7  N   UNL     1      85.764  56.230  44.484  1.00  0.00    -0.249 NA
ENDROOT
BRANCH   5   8
ATOM      8  C   UNL     1      86.833  52.809  45.583  1.00  0.00     0.083 A 
ATOM      9  C   UNL     1      86.914  51.924  46.639  1.00  0.00     0.096 A 
ATOM     10  N   UNL     1      87.233  52.277  44.365  1.00  0.00    -0.236 NA
ATOM     11  S   UNL     1      87.500  50.409  46.097  1.00  0.00    -0.122 S 
ATOM     12  C   UNL     1      87.610  51.018  44.489  1.00  0.00     0.125 A 
BRANCH  12  13
ATOM     13  C   UNL     1      88.086  50.194  43.365  1.00  0.00     0.029 A 
ATOM     14  C   UNL     1      89.204  49.364  43.535  1.00  0.00     0.014 A 
ATOM     15  C   UNL     1      87.494  50.170  42.103  1.00  0.00     0.122 A 
ATOM     16  C   UNL     1      89.672  48.575  42.485  1.00  0.00     0.021 A 
ATOM     17  N   UNL     1      87.924  49.414  41.058  1.00  0.00    -0.264 NA
ATOM     18  C   UNL     1      89.003  48.635  41.275  1.00  0.00     0.111 A 
ENDBRANCH  12  13
ENDBRANCH   5   8
TORSDOF 2
ENDMDL
MODEL 4
REMARK VINA RESULT:      -6.6      5.820      7.643
REMARK SMILES Brc1ccc(-c2csc(-c3cccnc3)n2)cn1
REMARK SMILES IDX 1 1 2 2 3 3 4 4 5 5 17 6 18 7 6 8 7 9 16 10 8 11 9 12 10 13
REMARK SMILES IDX 11 14 15 15 12 16 14 17 13 18
REMARK H PARENT
ROOT
ATOM      1  Br  UNL     1      79.472  48.121  43.799  1.00  0.00    -0.029 Br
ATOM      2  C   UNL     1      80.939  49.272  43.457  1.00  0.00     0.106 A 
ATOM      3  C   UNL     1      82.188  48.931  43.953  1.00  0.00     0.037 A 
ATOM      4  C   UNL     1      83.265  49.783  43.697  1.00  0.00     0.015 A 
ATOM      5  C   UNL     1      83.073  50.951  42.955  1.00  0.00     0.019 A 
ATOM      6  C   UNL     1      81.775  51.195  42.505  1.00  0.00     0.122 A 
ATOM      7  N   UNL     1      80.709  50.387  42.737  1.00  0.00    -0.249 NA
ENDROOT
BRANCH   5   8
ATOM      8  C   UNL     1      84.140  51.894  42.643  1.00  0.00     0.083 A 
ATOM      9  C   UNL     1      85.233  51.626  41.845  1.00  0.00     0.096 A 
ATOM     10  N   UNL     1      84.116  53.183  43.157  1.00  0.00    -0.236 NA
ATOM     11  S   UNL     1      86.242  53.006  41.739  1.00  0.00    -0.122 S 
ATOM     12  C   UNL     1      85.165  53.881  42.761  1.00  0.00     0.125 A 
BRANCH  12  13
ATOM     13  C   UNL     1      85.409  55.280  43.148  1.00  0.00     0.029 A 
ATOM     14  C   UNL     1      86.496  55.594  43.977  1.00  0.00     0.014 A 
ATOM     15  C   UNL     1      84.621  56.356  42.742  1.00  0.00     0.122 A 
ATOM     16  C   UNL     1      86.745  56.912  44.356  1.00  0.00     0.021 A 
ATOM     17  N   UNL     1      84.835  57.652  43.093  1.00  0.00    -0.264 NA
ATOM     18  C   UNL     1      85.893  57.898  43.892  1.00  0.00     0.111 A 
ENDBRANCH  12  13
ENDBRANCH   5   8
TORSDOF 2
ENDMDL
MODEL 5
REMARK VINA RESULT:      -6.6      5.259      8.041
REMARK SMILES Brc1ccc(-c2csc(-c3cccnc3)n2)cn1
REMARK SMILES IDX 1 1 2 2 3 3 4 4 5 5 17 6 18 7 6 8 7 9 16 10 8 11 9 12 10 13
REMARK SMILES IDX 11 14 15 15 12 16 14 17 13 18
REMARK H PARENT
ROOT
ATOM      1  Br  UNL     1      79.498  49.570  43.253  1.00  0.00    -0.029 Br
ATOM      2  C   UNL     1      81.353  49.962  43.261  1.00  0.00     0.106 A 
ATOM      3  C   UNL     1      82.233  49.028  43.786  1.00  0.00     0.037 A 
ATOM      4  C   UNL     1      83.598  49.323  43.789  1.00  0.00     0.015 A 
ATOM      5  C   UNL     1      84.053  50.539  43.270  1.00  0.00     0.019 A 
ATOM      6  C   UNL     1      83.080  51.403  42.767  1.00  0.00     0.122 A 
ATOM      7  N   UNL     1      81.747  51.145  42.751  1.00  0.00    -0.249 NA
ENDROOT
BRANCH   5   8
ATOM      8  C   UNL     1      85.458  50.926  43.235  1.00  0.00     0.083 A 
ATOM      9  C   UNL     1      86.335  50.843  44.297  1.00  0.00     0.096 A 
ATOM     10  N   UNL     1      86.025  51.425  42.070  1.00  0.00    -0.236 NA
ATOM     11  S   UNL     1      87.886  51.398  43.829  1.00  0.00    -0.122 S 
ATOM     12  C   UNL     1      87.302  51.716  42.240  1.00  0.00     0.125 A 
BRANCH  12  13
ATOM     13  C   UNL     1      88.163  52.263  41.178  1.00  0.00     0.029 A 
ATOM     14  C   UNL     1      89.503  52.567  41.458  1.00  0.00     0.014 A 
ATOM     15  C   UNL     1      87.740  52.511  39.873  1.00  0.00     0.122 A 
ATOM     16  C   UNL     1      90.336  53.086  40.468  1.00  0.00     0.021 A 
ATOM     17  N   UNL     1      88.525  53.016  38.886  1.00  0.00    -0.264 NA
ATOM     18  C   UNL     1      89.805  53.291  39.207  1.00  0.00     0.111 A 
ENDBRANCH  12  13
ENDBRANCH   5   8
TORSDOF 2
ENDMDL
MODEL 6
REMARK VINA RESULT:      -6.2      6.170      8.901
REMARK SMILES Brc1ccc(-c2csc(-c3cccnc3)n2)cn1
REMARK SMILES IDX 1 1 2 2 3 3 4 4 5 5 17 6 18 7 6 8 7 9 16 10 8 11 9 12 10 13
REMARK SMILES IDX 11 14 15 15 12 16 14 17 13 18
REMARK H PARENT
ROOT
ATOM      1  Br  UNL     1      84.064  54.953  48.328  1.00  0.00    -0.029 Br
ATOM      2  C   UNL     1      84.926  54.194  46.820  1.00  0.00     0.106 A 
ATOM      3  C   UNL     1      84.630  52.887  46.466  1.00  0.00     0.037 A 
ATOM      4  C   UNL     1      85.268  52.334  45.353  1.00  0.00     0.015 A 
ATOM      5  C   UNL     1      86.185  53.095  44.622  1.00  0.00     0.019 A 
ATOM      6  C   UNL     1      86.407  54.398  45.067  1.00  0.00     0.122 A 
ATOM      7  N   UNL     1      85.802  54.963  46.144  1.00  0.00    -0.249 NA
ENDROOT
BRANCH   5   8
ATOM      8  C   UNL     1      86.895  52.595  43.451  1.00  0.00     0.083 A 
ATOM      9  C   UNL     1      87.045  53.276  42.259  1.00  0.00     0.096 A 
ATOM     10  N   UNL     1      87.493  51.343  43.467  1.00  0.00    -0.236 NA
ATOM     11  S   UNL     1      87.945  52.333  41.149  1.00  0.00    -0.122 S 
ATOM     12  C   UNL     1      88.084  51.075  42.318  1.00  0.00     0.125 A 
BRANCH  12  13
ATOM     13  C   UNL     1      88.802  49.819  42.042  1.00  0.00     0.029 A 
ATOM     14  C   UNL     1      88.077  48.645  41.789  1.00  0.00     0.014 A 
ATOM     15  C   UNL     1      90.190  49.698  42.008  1.00  0.00     0.122 A 
ATOM     16  C   UNL     1      88.735  47.445  41.526  1.00  0.00     0.021 A 
ATOM     17  N   UNL     1      90.863  48.545  41.756  1.00  0.00    -0.264 NA
ATOM     18  C   UNL     1      90.119  47.446  41.520  1.00  0.00     0.111 A 
ENDBRANCH  12  13
ENDBRANCH   5   8
TORSDOF 2
ENDMDL
MODEL 7
REMARK VINA RESULT:      -6.1      4.579      7.970
REMARK SMILES Brc1ccc(-c2csc(-c3cccnc3)n2)cn1
REMARK SMILES IDX 1 1 2 2 3 3 4 4 5 5 17 6 18 7 6 8 7 9 16 10 8 11 9 12 10 13
REMARK SMILES IDX 11 14 15 15 12 16 14 17 13 18
REMARK H PARENT
ROOT
ATOM      1  Br  UNL     1      79.275  49.628  43.327  1.00  0.00    -0.029 Br
ATOM      2  C   UNL     1      81.106  50.115  43.253  1.00  0.00     0.106 A 
ATOM      3  C   UNL     1      82.036  49.326  43.913  1.00  0.00     0.037 A 
ATOM      4  C   UNL     1      83.384  49.690  43.854  1.00  0.00     0.015 A 
ATOM      5  C   UNL     1      83.771  50.829  43.141  1.00  0.00     0.019 A 
ATOM      6  C   UNL     1      82.752  51.548  42.516  1.00  0.00     0.122 A 
ATOM      7  N   UNL     1      81.435  51.219  42.555  1.00  0.00    -0.249 NA
ENDROOT
BRANCH   5   8
ATOM      8  C   UNL     1      85.153  51.280  43.030  1.00  0.00     0.083 A 
ATOM      9  C   UNL     1      85.571  52.594  43.089  1.00  0.00     0.096 A 
ATOM     10  N   UNL     1      86.182  50.366  42.850  1.00  0.00    -0.236 NA
ATOM     11  S   UNL     1      87.272  52.683  42.916  1.00  0.00    -0.122 S 
ATOM     12  C   UNL     1      87.355  50.967  42.774  1.00  0.00     0.125 A 
BRANCH  12  13
ATOM     13  C   UNL     1      88.628  50.253  42.584  1.00  0.00     0.029 A 
ATOM     14  C   UNL     1      89.133  49.445  43.613  1.00  0.00     0.014 A 
ATOM     15  C   UNL     1      89.399  50.317  41.424  1.00  0.00     0.122 A 
ATOM     16  C   UNL     1      90.337  48.760  43.455  1.00  0.00     0.021 A 
ATOM     17  N   UNL     1      90.576  49.663  41.237  1.00  0.00    -0.264 NA
ATOM     18  C   UNL     1      91.016  48.900  42.257  1.00  0.00     0.111 A 
ENDBRANCH  12  13
ENDBRANCH   5   8
TORSDOF 2
ENDMDL
MODEL 8
REMARK VINA RESULT:      -6.0     23.154     24.581
REMARK SMILES Brc1ccc(-c2csc(-c3cccnc3)n2)cn1
REMARK SMILES IDX 1 1 2 2 3 3 4 4 5 5 17 6 18 7 6 8 7 9 16 10 8 11 9 12 10 13
REMARK SMILES IDX 11 14 15 15 12 16 14 17 13 18
REMARK H PARENT
ROOT
ATOM      1  Br  UNL     1      91.181  68.949  49.202  1.00  0.00    -0.029 Br
ATOM      2  C   UNL     1      92.481  68.885  47.824  1.00  0.00     0.106 A 
ATOM      3  C   UNL     1      92.079  68.555  46.538  1.00  0.00     0.037 A 
ATOM      4  C   UNL     1      93.043  68.510  45.527  1.00  0.00     0.015 A 
ATOM      5  C   UNL     1      94.380  68.793  45.821  1.00  0.00     0.019 A 
ATOM      6  C   UNL     1      94.671  69.113  47.147  1.00  0.00     0.122 A 
ATOM      7  N   UNL     1      93.757  69.165  48.150  1.00  0.00    -0.249 NA
ENDROOT
BRANCH   5   8
ATOM      8  C   UNL     1      95.447  68.769  44.827  1.00  0.00     0.083 A 
ATOM      9  C   UNL     1      96.688  69.354  44.975  1.00  0.00     0.096 A 
ATOM     10  N   UNL     1      95.267  68.120  43.614  1.00  0.00    -0.236 NA
ATOM     11  S   UNL     1      97.638  69.088  43.576  1.00  0.00    -0.122 S 
ATOM     12  C   UNL     1      96.343  68.209  42.854  1.00  0.00     0.125 A 
BRANCH  12  13
ATOM     13  C   UNL     1      96.446  67.616  41.510  1.00  0.00     0.029 A 
ATOM     14  C   UNL     1      95.818  66.392  41.240  1.00  0.00     0.014 A 
ATOM     15  C   UNL     1      97.140  68.194  40.448  1.00  0.00     0.122 A 
ATOM     16  C   UNL     1      95.902  65.813  39.975  1.00  0.00     0.021 A 
ATOM     17  N   UNL     1      97.242  67.657  39.204  1.00  0.00    -0.264 NA
ATOM     18  C   UNL     1      96.620  66.479  38.997  1.00  0.00     0.111 A 
ENDBRANCH  12  13
ENDBRANCH   5   8
TORSDOF 2
ENDMDL
MODEL 9
REMARK VINA RESULT:      -5.6     14.407     15.666
REMARK SMILES Brc1ccc(-c2csc(-c3cccnc3)n2)cn1
REMARK SMILES IDX 1 1 2 2 3 3 4 4 5 5 17 6 18 7 6 8 7 9 16 10 8 11 9 12 10 13
REMARK SMILES IDX 11 14 15 15 12 16 14 17 13 18
REMARK H PARENT
ROOT
ATOM      1  Br  UNL     1      81.605  50.641  26.395  1.00  0.00    -0.029 Br
ATOM      2  C   UNL     1      80.364  50.274  27.781  1.00  0.00     0.106 A 
ATOM      3  C   UNL     1      80.391  51.052  28.928  1.00  0.00     0.037 A 
ATOM      4  C   UNL     1      79.473  50.777  29.945  1.00  0.00     0.015 A 
ATOM      5  C   UNL     1      78.554  49.735  29.795  1.00  0.00     0.019 A 
ATOM      6  C   UNL     1      78.617  49.017  28.600  1.00  0.00     0.122 A 
ATOM      7  N   UNL     1      79.496  49.261  27.595  1.00  0.00    -0.249 NA
ENDROOT
BRANCH   5   8
ATOM      8  C   UNL     1      77.565  49.380  30.806  1.00  0.00     0.083 A 
ATOM      9  C   UNL     1      77.563  49.827  32.111  1.00  0.00     0.096 A 
ATOM     10  N   UNL     1      76.512  48.530  30.496  1.00  0.00    -0.236 NA
ATOM     11  S   UNL     1      76.228  49.172  32.959  1.00  0.00    -0.122 S 
ATOM     12  C   UNL     1      75.728  48.333  31.540  1.00  0.00     0.125 A 
BRANCH  12  13
ATOM     13  C   UNL     1      74.530  47.477  31.511  1.00  0.00     0.029 A 
ATOM     14  C   UNL     1      73.265  48.056  31.335  1.00  0.00     0.014 A 
ATOM     15  C   UNL     1      74.553  46.089  31.649  1.00  0.00     0.122 A 
ATOM     16  C   UNL     1      72.118  47.264  31.305  1.00  0.00     0.021 A 
ATOM     17  N   UNL     1      73.455  45.289  31.625  1.00  0.00    -0.264 NA
ATOM     18  C   UNL     1      72.264  45.896  31.453  1.00  0.00     0.111 A 
ENDBRANCH  12  13
ENDBRANCH   5   8
TORSDOF 2
ENDMDL
