MODEL 1
REMARK VINA RESULT:      -6.8      0.000      0.000
REMARK SMILES Brc1ccc(-c2csc(-c3ccncc3)n2)cn1
REMARK SMILES IDX 1 1 2 2 3 3 4 4 5 5 17 6 18 7 6 8 7 9 16 10 8 11 9 12 10 13
REMARK SMILES IDX 11 14 15 15 12 16 14 17 13 18
REMARK H PARENT
ROOT
ATOM      1  Br  UNL     1      87.932  42.663  43.345  1.00  0.00    -0.029 Br
ATOM      2  C   UNL     1      86.915  44.259  43.439  1.00  0.00     0.106 A 
ATOM      3  C   UNL     1      85.719  44.253  44.139  1.00  0.00     0.037 A 
ATOM      4  C   UNL     1      84.980  45.435  44.202  1.00  0.00     0.015 A 
ATOM      5  C   UNL     1      85.444  46.592  43.567  1.00  0.00     0.019 A 
ATOM      6  C   UNL     1      86.657  46.484  42.891  1.00  0.00     0.122 A 
ATOM      7  N   UNL     1      87.400  45.352  42.812  1.00  0.00    -0.249 NA
ENDROOT
BRANCH   5   8
ATOM      8  C   UNL     1      84.669  47.827  43.634  1.00  0.00     0.083 A 
ATOM      9  C   UNL     1      85.195  49.103  43.613  1.00  0.00     0.096 A 
ATOM     10  N   UNL     1      83.283  47.787  43.727  1.00  0.00    -0.236 NA
ATOM     11  S   UNL     1      83.940  50.264  43.710  1.00  0.00    -0.122 S 
ATOM     12  C   UNL     1      82.769  49.002  43.776  1.00  0.00     0.124 A 
BRANCH  12  13
ATOM     13  C   UNL     1      81.320  49.273  43.875  1.00  0.00     0.013 A 
ATOM     14  C   UNL     1      80.461  48.594  44.746  1.00  0.00     0.031 A 
ATOM     15  C   UNL     1      80.762  50.264  43.056  1.00  0.00     0.031 A 
ATOM     16  C   UNL     1      79.114  48.928  44.758  1.00  0.00     0.111 A 
ATOM     17  C   UNL     1      79.406  50.527  43.139  1.00  0.00     0.111 A 
ATOM     18  N   UNL     1      78.569  49.879  43.974  1.00  0.00    -0.265 NA
ENDBRANCH  12  13
ENDBRANCH   5   8
TORSDOF 2
ENDMDL
MODEL 2
REMARK VINA RESULT:      -6.6      2.627      3.454
REMARK SMILES Brc1ccc(-c2csc(-c3ccncc3)n2)cn1
REMARK SMILES IDX 1 1 2 2 3 3 4 4 5 5 17 6 18 7 6 8 7 9 16 10 8 11 9 12 10 13
REMARK SMILES IDX 11 14 15 15 12 16 14 17 13 18
REMARK H PARENT
ROOT
ATOM      1  Br  UNL     1      87.883  42.782  43.402  1.00  0.00    -0.029 Br
ATOM      2  C   UNL     1      86.763  44.310  43.462  1.00  0.00     0.106 A 
ATOM      3  C   UNL     1      85.583  44.250  44.185  1.00  0.00     0.037 A 
ATOM      4  C   UNL     1      84.768  45.382  44.222  1.00  0.00     0.015 A 
ATOM      5  C   UNL     1      85.144  46.545  43.541  1.00  0.00     0.019 A 
ATOM      6  C   UNL     1      86.350  46.494  42.847  1.00  0.00     0.122 A 
ATOM      7  N   UNL     1      87.165  45.411  42.791  1.00  0.00    -0.249 NA
ENDROOT
BRANCH   5   8
ATOM      8  C   UNL     1      84.290  47.728  43.581  1.00  0.00     0.083 A 
ATOM      9  C   UNL     1      82.914  47.724  43.471  1.00  0.00     0.096 A 
ATOM     10  N   UNL     1      84.842  48.992  43.743  1.00  0.00    -0.236 NA
ATOM     11  S   UNL     1      82.306  49.321  43.571  1.00  0.00    -0.122 S 
ATOM     12  C   UNL     1      83.909  49.927  43.754  1.00  0.00     0.124 A 
BRANCH  12  13
ATOM     13  C   UNL     1      84.197  51.367  43.911  1.00  0.00     0.013 A 
ATOM     14  C   UNL     1      84.583  51.955  45.121  1.00  0.00     0.031 A 
ATOM     15  C   UNL     1      84.078  52.204  42.792  1.00  0.00     0.031 A 
ATOM     16  C   UNL     1      84.828  53.320  45.156  1.00  0.00     0.111 A 
ATOM     17  C   UNL     1      84.345  53.555  42.926  1.00  0.00     0.111 A 
ATOM     18  N   UNL     1      84.717  54.132  44.086  1.00  0.00    -0.265 NA
ENDBRANCH  12  13
ENDBRANCH   5   8
TORSDOF 2
ENDMDL
MODEL 3
REMARK VINA RESULT:      -6.6      4.552      6.877
REMARK SMILES Brc1ccc(-c2csc(-c3ccncc3)n2)cn1
REMARK SMILES IDX 1 1 2 2 3 3 4 4 5 5 17 6 18 7 6 8 7 9 16 10 8 11 9 12 10 13
REMARK SMILES IDX 11 14 15 15 12 16 14 17 13 18
REMARK H PARENT
ROOT
ATOM      1  Br  UNL     1      87.578  42.925  43.136  1.00  0.00    -0.029 Br
ATOM      2  C   UNL     1      87.491  44.806  42.918  1.00  0.00     0.106 A 
ATOM      3  C   UNL     1      88.537  45.457  42.284  1.00  0.00     0.037 A 
ATOM      4  C   UNL     1      88.461  46.841  42.129  1.00  0.00     0.015 A 
ATOM      5  C   UNL     1      87.351  47.545  42.608  1.00  0.00     0.019 A 
ATOM      6  C   UNL     1      86.359  46.790  43.228  1.00  0.00     0.122 A 
ATOM      7  N   UNL     1      86.402  45.445  43.394  1.00  0.00    -0.249 NA
ENDROOT
BRANCH   5   8
ATOM      8  C   UNL     1      87.274  48.994  42.444  1.00  0.00     0.083 A 
ATOM      9  C   UNL     1      86.424  49.831  43.137  1.00  0.00     0.096 A 
ATOM     10  N   UNL     1      88.096  49.646  41.534  1.00  0.00    -0.236 NA
ATOM     11  S   UNL     1      86.658  51.455  42.643  1.00  0.00    -0.122 S 
ATOM     12  C   UNL     1      87.876  50.949  41.534  1.00  0.00     0.124 A 
BRANCH  12  13
ATOM     13  C   UNL     1      88.602  51.901  40.669  1.00  0.00     0.013 A 
ATOM     14  C   UNL     1      88.087  52.413  39.473  1.00  0.00     0.031 A 
ATOM     15  C   UNL     1      89.882  52.321  41.057  1.00  0.00     0.031 A 
ATOM     16  C   UNL     1      88.857  53.302  38.737  1.00  0.00     0.111 A 
ATOM     17  C   UNL     1      90.574  53.213  40.256  1.00  0.00     0.111 A 
ATOM     18  N   UNL     1      90.088  53.713  39.102  1.00  0.00    -0.265 NA
ENDBRANCH  12  13
ENDBRANCH   5   8
TORSDOF 2
ENDMDL
MODEL 4
REMARK VINA RESULT:      -6.3      4.612      5.484
REMARK SMILES Brc1ccc(-c2csc(-c3ccncc3)n2)cn1
REMARK SMILES IDX 1 1 2 2 3 3 4 4 5 5 17 6 18 7 6 8 7 9 16 10 8 11 9 12 10 13
REMARK SMILES IDX 11 14 15 15 12 16 14 17 13 18
REMARK H PARENT
ROOT
ATOM      1  Br  UNL     1      86.757  43.511  43.470  1.00  0.00    -0.029 Br
ATOM      2  C   UNL     1      87.124  45.296  42.949  1.00  0.00     0.106 A 
ATOM      3  C   UNL     1      88.246  45.553  42.177  1.00  0.00     0.037 A 
ATOM      4  C   UNL     1      88.504  46.872  41.800  1.00  0.00     0.015 A 
ATOM      5  C   UNL     1      87.644  47.902  42.198  1.00  0.00     0.019 A 
ATOM      6  C   UNL     1      86.548  47.529  42.972  1.00  0.00     0.122 A 
ATOM      7  N   UNL     1      86.268  46.258  43.355  1.00  0.00    -0.249 NA
ENDROOT
BRANCH   5   8
ATOM      8  C   UNL     1      87.917  49.280  41.802  1.00  0.00     0.083 A 
ATOM      9  C   UNL     1      89.014  49.700  41.079  1.00  0.00     0.096 A 
ATOM     10  N   UNL     1      87.041  50.301  42.149  1.00  0.00    -0.236 NA
ATOM     11  S   UNL     1      88.947  51.393  40.829  1.00  0.00    -0.122 S 
ATOM     12  C   UNL     1      87.462  51.469  41.700  1.00  0.00     0.124 A 
BRANCH  12  13
ATOM     13  C   UNL     1      86.735  52.737  41.914  1.00  0.00     0.013 A 
ATOM     14  C   UNL     1      87.026  53.634  42.949  1.00  0.00     0.031 A 
ATOM     15  C   UNL     1      85.692  53.072  41.040  1.00  0.00     0.031 A 
ATOM     16  C   UNL     1      86.278  54.797  43.058  1.00  0.00     0.111 A 
ATOM     17  C   UNL     1      85.003  54.258  41.230  1.00  0.00     0.111 A 
ATOM     18  N   UNL     1      85.274  55.128  42.222  1.00  0.00    -0.265 NA
ENDBRANCH  12  13
ENDBRANCH   5   8
TORSDOF 2
ENDMDL
MODEL 5
REMARK VINA RESULT:      -6.2     16.394     17.800
REMARK SMILES Brc1ccc(-c2csc(-c3ccncc3)n2)cn1
REMARK SMILES IDX 1 1 2 2 3 3 4 4 5 5 17 6 18 7 6 8 7 9 16 10 8 11 9 12 10 13
REMARK SMILES IDX 11 14 15 15 12 16 14 17 13 18
REMARK H PARENT
ROOT
ATOM      1  Br  UNL     1      82.610  58.965  62.202  1.00  0.00    -0.029 Br
ATOM      2  C   UNL     1      82.683  57.170  61.597  1.00  0.00     0.106 A 
ATOM      3  C   UNL     1      82.800  56.923  60.238  1.00  0.00     0.037 A 
ATOM      4  C   UNL     1      82.853  55.597  59.806  1.00  0.00     0.015 A 
ATOM      5  C   UNL     1      82.788  54.550  60.731  1.00  0.00     0.019 A 
ATOM      6  C   UNL     1      82.670  54.913  62.071  1.00  0.00     0.122 A 
ATOM      7  N   UNL     1      82.617  56.191  62.524  1.00  0.00    -0.249 NA
ENDROOT
BRANCH   5   8
ATOM      8  C   UNL     1      82.843  53.164  60.276  1.00  0.00     0.083 A 
ATOM      9  C   UNL     1      82.543  52.059  61.045  1.00  0.00     0.096 A 
ATOM     10  N   UNL     1      83.222  52.863  58.974  1.00  0.00    -0.236 NA
ATOM     11  S   UNL     1      82.736  50.626  60.126  1.00  0.00    -0.122 S 
ATOM     12  C   UNL     1      83.210  51.560  58.758  1.00  0.00     0.124 A 
BRANCH  12  13
ATOM     13  C   UNL     1      83.566  50.943  57.464  1.00  0.00     0.013 A 
ATOM     14  C   UNL     1      84.761  50.252  57.236  1.00  0.00     0.031 A 
ATOM     15  C   UNL     1      82.664  51.050  56.396  1.00  0.00     0.031 A 
ATOM     16  C   UNL     1      84.994  49.711  55.980  1.00  0.00     0.111 A 
ATOM     17  C   UNL     1      82.986  50.476  55.178  1.00  0.00     0.111 A 
ATOM     18  N   UNL     1      84.134  49.808  54.947  1.00  0.00    -0.265 NA
ENDBRANCH  12  13
ENDBRANCH   5   8
TORSDOF 2
ENDMDL
MODEL 6
REMARK VINA RESULT:      -6.0      4.309      5.460
REMARK SMILES Brc1ccc(-c2csc(-c3ccncc3)n2)cn1
REMARK SMILES IDX 1 1 2 2 3 3 4 4 5 5 17 6 18 7 6 8 7 9 16 10 8 11 9 12 10 13
REMARK SMILES IDX 11 14 15 15 12 16 14 17 13 18
REMARK H PARENT
ROOT
ATOM      1  Br  UNL     1      85.548  44.235  43.823  1.00  0.00    -0.029 Br
ATOM      2  C   UNL     1      86.040  46.046  43.558  1.00  0.00     0.106 A 
ATOM      3  C   UNL     1      86.945  46.356  42.555  1.00  0.00     0.037 A 
ATOM      4  C   UNL     1      87.298  47.694  42.370  1.00  0.00     0.015 A 
ATOM      5  C   UNL     1      86.746  48.689  43.184  1.00  0.00     0.019 A 
ATOM      6  C   UNL     1      85.847  48.264  44.159  1.00  0.00     0.122 A 
ATOM      7  N   UNL     1      85.482  46.974  44.365  1.00  0.00    -0.249 NA
ENDROOT
BRANCH   5   8
ATOM      8  C   UNL     1      87.117  50.087  42.987  1.00  0.00     0.083 A 
ATOM      9  C   UNL     1      88.151  50.534  42.190  1.00  0.00     0.096 A 
ATOM     10  N   UNL     1      86.414  51.101  43.625  1.00  0.00    -0.236 NA
ATOM     11  S   UNL     1      88.242  52.244  42.239  1.00  0.00    -0.122 S 
ATOM     12  C   UNL     1      86.901  52.290  43.320  1.00  0.00     0.124 A 
BRANCH  12  13
ATOM     13  C   UNL     1      86.355  53.557  43.849  1.00  0.00     0.013 A 
ATOM     14  C   UNL     1      85.289  53.627  44.754  1.00  0.00     0.031 A 
ATOM     15  C   UNL     1      86.927  54.765  43.427  1.00  0.00     0.031 A 
ATOM     16  C   UNL     1      84.855  54.871  45.185  1.00  0.00     0.111 A 
ATOM     17  C   UNL     1      86.425  55.959  43.915  1.00  0.00     0.111 A 
ATOM     18  N   UNL     1      85.399  56.038  44.786  1.00  0.00    -0.265 NA
ENDBRANCH  12  13
ENDBRANCH   5   8
TORSDOF 2
ENDMDL
MODEL 7
REMARK VINA RESULT:      -5.3     18.199     21.071
REMARK SMILES Brc1ccc(-c2csc(-c3ccncc3)n2)cn1
REMARK SMILES IDX 1 1 2 2 3 3 4 4 5 5 17 6 18 7 6 8 7 9 16 10 8 11 9 12 10 13
REMARK SMILES IDX 11 14 15 15 12 16 14 17 13 18
REMARK H PARENT
ROOT
ATOM      1  Br  UNL     1      61.236  55.706  52.773  1.00  0.00    -0.029 Br
ATOM      2  C   UNL     1      63.049  55.902  52.257  1.00  0.00     0.106 A 
ATOM      3  C   UNL     1      63.368  55.895  50.908  1.00  0.00     0.037 A 
ATOM      4  C   UNL     1      64.706  56.041  50.542  1.00  0.00     0.015 A 
ATOM      5  C   UNL     1      65.694  56.190  51.521  1.00  0.00     0.019 A 
ATOM      6  C   UNL     1      65.261  56.184  52.844  1.00  0.00     0.122 A 
ATOM      7  N   UNL     1      63.969  56.044  53.234  1.00  0.00    -0.249 NA
ENDROOT
BRANCH   5   8
ATOM      8  C   UNL     1      67.094  56.344  51.134  1.00  0.00     0.083 A 
ATOM      9  C   UNL     1      68.162  55.711  51.735  1.00  0.00     0.096 A 
ATOM     10  N   UNL     1      67.448  57.179  50.082  1.00  0.00    -0.236 NA
ATOM     11  S   UNL     1      69.627  56.167  50.974  1.00  0.00    -0.122 S 
ATOM     12  C   UNL     1      68.754  57.181  49.888  1.00  0.00     0.124 A 
BRANCH  12  13
ATOM     13  C   UNL     1      69.424  57.976  48.838  1.00  0.00     0.013 A 
ATOM     14  C   UNL     1      70.549  57.538  48.132  1.00  0.00     0.031 A 
ATOM     15  C   UNL     1      68.912  59.242  48.524  1.00  0.00     0.031 A 
ATOM     16  C   UNL     1      71.099  58.367  47.165  1.00  0.00     0.111 A 
ATOM     17  C   UNL     1      69.530  59.997  47.541  1.00  0.00     0.111 A 
ATOM     18  N   UNL     1      70.615  59.586  46.855  1.00  0.00    -0.265 NA
ENDBRANCH  12  13
ENDBRANCH   5   8
TORSDOF 2
ENDMDL
MODEL 8
REMARK VINA RESULT:      -5.3      3.761      4.668
REMARK SMILES Brc1ccc(-c2csc(-c3ccncc3)n2)cn1
REMARK SMILES IDX 1 1 2 2 3 3 4 4 5 5 17 6 18 7 6 8 7 9 16 10 8 11 9 12 10 13
REMARK SMILES IDX 11 14 15 15 12 16 14 17 13 18
REMARK H PARENT
ROOT
ATOM      1  Br  UNL     1      84.931  44.102  43.418  1.00  0.00    -0.029 Br
ATOM      2  C   UNL     1      84.924  45.991  43.572  1.00  0.00     0.106 A 
ATOM      3  C   UNL     1      86.131  46.671  43.549  1.00  0.00     0.037 A 
ATOM      4  C   UNL     1      86.111  48.062  43.662  1.00  0.00     0.015 A 
ATOM      5  C   UNL     1      84.897  48.742  43.796  1.00  0.00     0.019 A 
ATOM      6  C   UNL     1      83.745  47.959  43.807  1.00  0.00     0.122 A 
ATOM      7  N   UNL     1      83.729  46.607  43.699  1.00  0.00    -0.249 NA
ENDROOT
BRANCH   5   8
ATOM      8  C   UNL     1      84.880  50.197  43.915  1.00  0.00     0.083 A 
ATOM      9  C   UNL     1      85.275  50.912  45.026  1.00  0.00     0.096 A 
ATOM     10  N   UNL     1      84.442  50.986  42.859  1.00  0.00    -0.236 NA
ATOM     11  S   UNL     1      85.097  52.592  44.745  1.00  0.00    -0.122 S 
ATOM     12  C   UNL     1      84.502  52.271  43.160  1.00  0.00     0.124 A 
BRANCH  12  13
ATOM     13  C   UNL     1      84.102  53.348  42.232  1.00  0.00     0.013 A 
ATOM     14  C   UNL     1      84.927  54.425  41.889  1.00  0.00     0.031 A 
ATOM     15  C   UNL     1      82.825  53.301  41.657  1.00  0.00     0.031 A 
ATOM     16  C   UNL     1      84.449  55.382  41.006  1.00  0.00     0.111 A 
ATOM     17  C   UNL     1      82.437  54.305  40.786  1.00  0.00     0.111 A 
ATOM     18  N   UNL     1      83.223  55.346  40.448  1.00  0.00    -0.265 NA
ENDBRANCH  12  13
ENDBRANCH   5   8
TORSDOF 2
ENDMDL
MODEL 9
REMARK VINA RESULT:      -5.3     15.090     17.340
REMARK SMILES Brc1ccc(-c2csc(-c3ccncc3)n2)cn1
REMARK SMILES IDX 1 1 2 2 3 3 4 4 5 5 17 6 18 7 6 8 7 9 16 10 8 11 9 12 10 13
REMARK SMILES IDX 11 14 15 15 12 16 14 17 13 18
REMARK H PARENT
ROOT
ATOM      1  Br  UNL     1      72.865  48.157  23.952  1.00  0.00    -0.029 Br
ATOM      2  C   UNL     1      73.005  48.057  25.839  1.00  0.00     0.106 A 
ATOM      3  C   UNL     1      74.167  48.500  26.451  1.00  0.00     0.037 A 
ATOM      4  C   UNL     1      74.257  48.422  27.841  1.00  0.00     0.015 A 
ATOM      5  C   UNL     1      73.194  47.905  28.590  1.00  0.00     0.019 A 
ATOM      6  C   UNL     1      72.075  47.489  27.872  1.00  0.00     0.122 A 
ATOM      7  N   UNL     1      71.955  47.552  26.522  1.00  0.00    -0.249 NA
ENDROOT
BRANCH   5   8
ATOM      8  C   UNL     1      73.291  47.824  30.044  1.00  0.00     0.083 A 
ATOM      9  C   UNL     1      72.343  47.266  30.877  1.00  0.00     0.096 A 
ATOM     10  N   UNL     1      74.401  48.331  30.707  1.00  0.00    -0.236 NA
ATOM     11  S   UNL     1      72.850  47.376  32.510  1.00  0.00    -0.122 S 
ATOM     12  C   UNL     1      74.301  48.163  32.013  1.00  0.00     0.124 A 
BRANCH  12  13
ATOM     13  C   UNL     1      75.332  48.601  32.975  1.00  0.00     0.013 A 
ATOM     14  C   UNL     1      76.293  49.578  32.693  1.00  0.00     0.031 A 
ATOM     15  C   UNL     1      75.360  48.012  34.247  1.00  0.00     0.031 A 
ATOM     16  C   UNL     1      77.217  49.914  33.672  1.00  0.00     0.111 A 
ATOM     17  C   UNL     1      76.321  48.414  35.159  1.00  0.00     0.111 A 
ATOM     18  N   UNL     1      77.252  49.353  34.897  1.00  0.00    -0.265 NA
ENDBRANCH  12  13
ENDBRANCH   5   8
TORSDOF 2
ENDMDL
