MODEL 1
REMARK VINA RESULT:      -6.7      0.000      0.000
REMARK SMILES Brc1ccc(-c2nc(-c3cccnc3)cs2)cc1
REMARK SMILES IDX 1 1 2 2 3 3 4 4 5 5 17 6 18 7 6 8 7 9 16 10 8 11 15 12 9 13
REMARK SMILES IDX 10 14 14 15 11 16 13 17 12 18
REMARK H PARENT
ROOT
ATOM      1  Br  UNL     1      77.390  50.346  34.340  1.00  0.00    -0.051 Br
ATOM      2  C   UNL     1      76.082  49.174  33.643  1.00  0.00     0.018 A 
ATOM      3  C   UNL     1      76.156  48.763  32.317  1.00  0.00     0.016 A 
ATOM      4  C   UNL     1      75.184  47.895  31.807  1.00  0.00     0.012 A 
ATOM      5  C   UNL     1      74.127  47.424  32.608  1.00  0.00     0.010 A 
ATOM      6  C   UNL     1      74.078  47.855  33.945  1.00  0.00     0.012 A 
ATOM      7  C   UNL     1      75.048  48.725  34.459  1.00  0.00     0.016 A 
ENDROOT
BRANCH   5   8
ATOM      8  C   UNL     1      73.134  46.508  32.006  1.00  0.00     0.124 A 
ATOM      9  N   UNL     1      71.834  46.590  32.224  1.00  0.00    -0.236 NA
ATOM     10  S   UNL     1      73.584  45.227  30.943  1.00  0.00    -0.122 S 
ATOM     11  C   UNL     1      71.139  45.608  31.533  1.00  0.00     0.083 A 
ATOM     12  C   UNL     1      71.941  44.774  30.781  1.00  0.00     0.096 A 
BRANCH  11  13
ATOM     13  C   UNL     1      69.687  45.515  31.631  1.00  0.00     0.019 A 
ATOM     14  C   UNL     1      68.933  46.181  32.603  1.00  0.00     0.013 A 
ATOM     15  C   UNL     1      68.977  44.731  30.722  1.00  0.00     0.121 A 
ATOM     16  C   UNL     1      67.544  46.041  32.629  1.00  0.00     0.021 A 
ATOM     17  N   UNL     1      67.627  44.574  30.721  1.00  0.00    -0.264 NA
ATOM     18  C   UNL     1      66.943  45.235  31.677  1.00  0.00     0.111 A 
ENDBRANCH  11  13
ENDBRANCH   5   8
TORSDOF 2
ENDMDL
MODEL 2
REMARK VINA RESULT:      -6.4      5.336      7.094
REMARK SMILES Brc1ccc(-c2nc(-c3cccnc3)cs2)cc1
REMARK SMILES IDX 1 1 2 2 3 3 4 4 5 5 17 6 18 7 6 8 7 9 16 10 8 11 15 12 9 13
REMARK SMILES IDX 10 14 14 15 11 16 13 17 12 18
REMARK H PARENT
ROOT
ATOM      1  Br  UNL     1      79.174  39.209  32.190  1.00  0.00    -0.051 Br
ATOM      2  C   UNL     1      78.637  40.972  32.607  1.00  0.00     0.018 A 
ATOM      3  C   UNL     1      78.909  41.501  33.864  1.00  0.00     0.016 A 
ATOM      4  C   UNL     1      78.509  42.806  34.167  1.00  0.00     0.012 A 
ATOM      5  C   UNL     1      77.833  43.604  33.224  1.00  0.00     0.010 A 
ATOM      6  C   UNL     1      77.572  43.045  31.961  1.00  0.00     0.012 A 
ATOM      7  C   UNL     1      77.970  41.737  31.654  1.00  0.00     0.016 A 
ENDROOT
BRANCH   5   8
ATOM      8  C   UNL     1      77.438  44.977  33.610  1.00  0.00     0.124 A 
ATOM      9  N   UNL     1      76.368  45.591  33.138  1.00  0.00    -0.236 NA
ATOM     10  S   UNL     1      78.349  45.920  34.729  1.00  0.00    -0.122 S 
ATOM     11  C   UNL     1      76.239  46.867  33.669  1.00  0.00     0.083 A 
ATOM     12  C   UNL     1      77.236  47.210  34.558  1.00  0.00     0.096 A 
BRANCH  11  13
ATOM     13  C   UNL     1      75.124  47.724  33.284  1.00  0.00     0.019 A 
ATOM     14  C   UNL     1      73.876  47.236  32.883  1.00  0.00     0.013 A 
ATOM     15  C   UNL     1      75.272  49.110  33.305  1.00  0.00     0.121 A 
ATOM     16  C   UNL     1      72.857  48.124  32.531  1.00  0.00     0.021 A 
ATOM     17  N   UNL     1      74.301  50.000  32.968  1.00  0.00    -0.264 NA
ATOM     18  C   UNL     1      73.116  49.482  32.588  1.00  0.00     0.111 A 
ENDBRANCH  11  13
ENDBRANCH   5   8
TORSDOF 2
ENDMDL
MODEL 3
REMARK VINA RESULT:      -6.2      4.351      8.296
REMARK SMILES Brc1ccc(-c2nc(-c3cccnc3)cs2)cc1
REMARK SMILES IDX 1 1 2 2 3 3 4 4 5 5 17 6 18 7 6 8 7 9 16 10 8 11 15 12 9 13
REMARK SMILES IDX 10 14 14 15 11 16 13 17 12 18
REMARK H PARENT
ROOT
ATOM      1  Br  UNL     1      70.004  45.886  32.153  1.00  0.00    -0.051 Br
ATOM      2  C   UNL     1      71.686  46.746  32.196  1.00  0.00     0.018 A 
ATOM      3  C   UNL     1      72.578  46.577  31.143  1.00  0.00     0.016 A 
ATOM      4  C   UNL     1      73.822  47.216  31.181  1.00  0.00     0.012 A 
ATOM      5  C   UNL     1      74.196  48.031  32.266  1.00  0.00     0.010 A 
ATOM      6  C   UNL     1      73.275  48.184  33.316  1.00  0.00     0.012 A 
ATOM      7  C   UNL     1      72.028  47.546  33.282  1.00  0.00     0.016 A 
ENDROOT
BRANCH   5   8
ATOM      8  C   UNL     1      75.526  48.677  32.242  1.00  0.00     0.124 A 
ATOM      9  N   UNL     1      76.316  48.689  31.184  1.00  0.00    -0.236 NA
ATOM     10  S   UNL     1      76.184  49.489  33.614  1.00  0.00    -0.122 S 
ATOM     11  C   UNL     1      77.502  49.363  31.440  1.00  0.00     0.083 A 
ATOM     12  C   UNL     1      77.596  49.866  32.722  1.00  0.00     0.096 A 
BRANCH  11  13
ATOM     13  C   UNL     1      78.521  49.498  30.407  1.00  0.00     0.019 A 
ATOM     14  C   UNL     1      79.118  50.715  30.063  1.00  0.00     0.013 A 
ATOM     15  C   UNL     1      78.949  48.373  29.701  1.00  0.00     0.121 A 
ATOM     16  C   UNL     1      80.090  50.759  29.061  1.00  0.00     0.021 A 
ATOM     17  N   UNL     1      79.891  48.385  28.722  1.00  0.00    -0.264 NA
ATOM     18  C   UNL     1      80.438  49.580  28.425  1.00  0.00     0.111 A 
ENDBRANCH  11  13
ENDBRANCH   5   8
TORSDOF 2
ENDMDL
MODEL 4
REMARK VINA RESULT:      -6.2      3.555      7.224
REMARK SMILES Brc1ccc(-c2nc(-c3cccnc3)cs2)cc1
REMARK SMILES IDX 1 1 2 2 3 3 4 4 5 5 17 6 18 7 6 8 7 9 16 10 8 11 15 12 9 13
REMARK SMILES IDX 10 14 14 15 11 16 13 17 12 18
REMARK H PARENT
ROOT
ATOM      1  Br  UNL     1      65.856  44.081  31.054  1.00  0.00    -0.051 Br
ATOM      2  C   UNL     1      67.671  44.599  31.134  1.00  0.00     0.018 A 
ATOM      3  C   UNL     1      68.588  44.054  30.242  1.00  0.00     0.016 A 
ATOM      4  C   UNL     1      69.930  44.442  30.306  1.00  0.00     0.012 A 
ATOM      5  C   UNL     1      70.380  45.377  31.259  1.00  0.00     0.010 A 
ATOM      6  C   UNL     1      69.432  45.911  32.148  1.00  0.00     0.012 A 
ATOM      7  C   UNL     1      68.086  45.525  32.087  1.00  0.00     0.016 A 
ENDROOT
BRANCH   5   8
ATOM      8  C   UNL     1      71.813  45.742  31.272  1.00  0.00     0.124 A 
ATOM      9  N   UNL     1      72.398  46.377  32.271  1.00  0.00    -0.236 NA
ATOM     10  S   UNL     1      72.874  45.368  29.965  1.00  0.00    -0.122 S 
ATOM     11  C   UNL     1      73.746  46.591  32.019  1.00  0.00     0.083 A 
ATOM     12  C   UNL     1      74.175  46.103  30.802  1.00  0.00     0.096 A 
BRANCH  11  13
ATOM     13  C   UNL     1      74.586  47.277  32.993  1.00  0.00     0.019 A 
ATOM     14  C   UNL     1      74.083  48.104  34.002  1.00  0.00     0.013 A 
ATOM     15  C   UNL     1      75.972  47.123  32.948  1.00  0.00     0.121 A 
ATOM     16  C   UNL     1      74.955  48.726  34.898  1.00  0.00     0.021 A 
ATOM     17  N   UNL     1      76.846  47.714  33.804  1.00  0.00    -0.264 NA
ATOM     18  C   UNL     1      76.314  48.502  34.760  1.00  0.00     0.111 A 
ENDBRANCH  11  13
ENDBRANCH   5   8
TORSDOF 2
ENDMDL
MODEL 5
REMARK VINA RESULT:      -5.8      3.986      5.511
REMARK SMILES Brc1ccc(-c2nc(-c3cccnc3)cs2)cc1
REMARK SMILES IDX 1 1 2 2 3 3 4 4 5 5 17 6 18 7 6 8 7 9 16 10 8 11 15 12 9 13
REMARK SMILES IDX 10 14 14 15 11 16 13 17 12 18
REMARK H PARENT
ROOT
ATOM      1  Br  UNL     1      81.524  50.760  26.948  1.00  0.00    -0.051 Br
ATOM      2  C   UNL     1      80.157  50.173  28.112  1.00  0.00     0.018 A 
ATOM      3  C   UNL     1      79.330  49.121  27.736  1.00  0.00     0.016 A 
ATOM      4  C   UNL     1      78.319  48.691  28.602  1.00  0.00     0.012 A 
ATOM      5  C   UNL     1      78.117  49.301  29.855  1.00  0.00     0.010 A 
ATOM      6  C   UNL     1      78.968  50.362  30.209  1.00  0.00     0.012 A 
ATOM      7  C   UNL     1      79.981  50.796  29.344  1.00  0.00     0.016 A 
ENDROOT
BRANCH   5   8
ATOM      8  C   UNL     1      77.030  48.797  30.722  1.00  0.00     0.124 A 
ATOM      9  N   UNL     1      75.851  48.412  30.269  1.00  0.00    -0.236 NA
ATOM     10  S   UNL     1      77.200  48.661  32.432  1.00  0.00    -0.122 S 
ATOM     11  C   UNL     1      75.024  47.986  31.299  1.00  0.00     0.083 A 
ATOM     12  C   UNL     1      75.603  48.055  32.550  1.00  0.00     0.096 A 
BRANCH  11  13
ATOM     13  C   UNL     1      73.672  47.516  31.023  1.00  0.00     0.019 A 
ATOM     14  C   UNL     1      72.794  47.063  32.012  1.00  0.00     0.013 A 
ATOM     15  C   UNL     1      73.193  47.504  29.713  1.00  0.00     0.121 A 
ATOM     16  C   UNL     1      71.512  46.629  31.666  1.00  0.00     0.021 A 
ATOM     17  N   UNL     1      71.953  47.088  29.344  1.00  0.00    -0.264 NA
ATOM     18  C   UNL     1      71.142  46.660  30.332  1.00  0.00     0.111 A 
ENDBRANCH  11  13
ENDBRANCH   5   8
TORSDOF 2
ENDMDL
MODEL 6
REMARK VINA RESULT:      -5.8      5.185      7.549
REMARK SMILES Brc1ccc(-c2nc(-c3cccnc3)cs2)cc1
REMARK SMILES IDX 1 1 2 2 3 3 4 4 5 5 17 6 18 7 6 8 7 9 16 10 8 11 15 12 9 13
REMARK SMILES IDX 10 14 14 15 11 16 13 17 12 18
REMARK H PARENT
ROOT
ATOM      1  Br  UNL     1      82.558  52.404  26.512  1.00  0.00    -0.051 Br
ATOM      2  C   UNL     1      81.229  51.327  27.313  1.00  0.00     0.018 A 
ATOM      3  C   UNL     1      80.925  51.489  28.661  1.00  0.00     0.016 A 
ATOM      4  C   UNL     1      79.940  50.688  29.249  1.00  0.00     0.012 A 
ATOM      5  C   UNL     1      79.243  49.716  28.505  1.00  0.00     0.010 A 
ATOM      6  C   UNL     1      79.570  49.575  27.146  1.00  0.00     0.012 A 
ATOM      7  C   UNL     1      80.557  50.374  26.553  1.00  0.00     0.016 A 
ENDROOT
BRANCH   5   8
ATOM      8  C   UNL     1      78.214  48.904  29.189  1.00  0.00     0.124 A 
ATOM      9  N   UNL     1      77.689  49.221  30.359  1.00  0.00    -0.236 NA
ATOM     10  S   UNL     1      77.590  47.445  28.516  1.00  0.00    -0.122 S 
ATOM     11  C   UNL     1      76.748  48.285  30.765  1.00  0.00     0.083 A 
ATOM     12  C   UNL     1      76.569  47.245  29.876  1.00  0.00     0.096 A 
BRANCH  11  13
ATOM     13  C   UNL     1      76.043  48.439  32.032  1.00  0.00     0.019 A 
ATOM     14  C   UNL     1      76.347  49.429  32.971  1.00  0.00     0.013 A 
ATOM     15  C   UNL     1      75.001  47.571  32.358  1.00  0.00     0.121 A 
ATOM     16  C   UNL     1      75.622  49.511  34.162  1.00  0.00     0.021 A 
ATOM     17  N   UNL     1      74.277  47.625  33.507  1.00  0.00    -0.264 NA
ATOM     18  C   UNL     1      74.608  48.596  34.382  1.00  0.00     0.111 A 
ENDBRANCH  11  13
ENDBRANCH   5   8
TORSDOF 2
ENDMDL
MODEL 7
REMARK VINA RESULT:      -5.7      6.174      7.882
REMARK SMILES Brc1ccc(-c2nc(-c3cccnc3)cs2)cc1
REMARK SMILES IDX 1 1 2 2 3 3 4 4 5 5 17 6 18 7 6 8 7 9 16 10 8 11 15 12 9 13
REMARK SMILES IDX 10 14 14 15 11 16 13 17 12 18
REMARK H PARENT
ROOT
ATOM      1  Br  UNL     1      77.441  50.397  34.679  1.00  0.00    -0.051 Br
ATOM      2  C   UNL     1      77.377  48.625  34.025  1.00  0.00     0.018 A 
ATOM      3  C   UNL     1      77.583  48.378  32.672  1.00  0.00     0.016 A 
ATOM      4  C   UNL     1      77.534  47.064  32.194  1.00  0.00     0.012 A 
ATOM      5  C   UNL     1      77.280  45.979  33.055  1.00  0.00     0.010 A 
ATOM      6  C   UNL     1      77.076  46.258  34.417  1.00  0.00     0.012 A 
ATOM      7  C   UNL     1      77.124  47.572  34.899  1.00  0.00     0.016 A 
ENDROOT
BRANCH   5   8
ATOM      8  C   UNL     1      77.242  44.615  32.483  1.00  0.00     0.124 A 
ATOM      9  N   UNL     1      78.046  43.639  32.862  1.00  0.00    -0.236 NA
ATOM     10  S   UNL     1      76.126  44.161  31.249  1.00  0.00    -0.122 S 
ATOM     11  C   UNL     1      77.792  42.468  32.162  1.00  0.00     0.083 A 
ATOM     12  C   UNL     1      76.772  42.576  31.238  1.00  0.00     0.096 A 
BRANCH  11  13
ATOM     13  C   UNL     1      78.567  41.261  32.422  1.00  0.00     0.019 A 
ATOM     14  C   UNL     1      79.329  41.066  33.579  1.00  0.00     0.013 A 
ATOM     15  C   UNL     1      78.571  40.222  31.491  1.00  0.00     0.121 A 
ATOM     16  C   UNL     1      80.043  39.878  33.754  1.00  0.00     0.021 A 
ATOM     17  N   UNL     1      79.255  39.057  31.633  1.00  0.00    -0.264 NA
ATOM     18  C   UNL     1      79.976  38.914  32.764  1.00  0.00     0.111 A 
ENDBRANCH  11  13
ENDBRANCH   5   8
TORSDOF 2
ENDMDL
MODEL 8
REMARK VINA RESULT:      -5.7      6.042      8.064
REMARK SMILES Brc1ccc(-c2nc(-c3cccnc3)cs2)cc1
REMARK SMILES IDX 1 1 2 2 3 3 4 4 5 5 17 6 18 7 6 8 7 9 16 10 8 11 15 12 9 13
REMARK SMILES IDX 10 14 14 15 11 16 13 17 12 18
REMARK H PARENT
ROOT
ATOM      1  Br  UNL     1      80.517  38.350  32.957  1.00  0.00    -0.051 Br
ATOM      2  C   UNL     1      79.561  39.964  32.735  1.00  0.00     0.018 A 
ATOM      3  C   UNL     1      78.952  40.247  31.517  1.00  0.00     0.016 A 
ATOM      4  C   UNL     1      78.245  41.444  31.358  1.00  0.00     0.012 A 
ATOM      5  C   UNL     1      78.135  42.376  32.408  1.00  0.00     0.010 A 
ATOM      6  C   UNL     1      78.760  42.064  33.627  1.00  0.00     0.012 A 
ATOM      7  C   UNL     1      79.469  40.867  33.790  1.00  0.00     0.016 A 
ENDROOT
BRANCH   5   8
ATOM      8  C   UNL     1      77.374  43.622  32.173  1.00  0.00     0.124 A 
ATOM      9  N   UNL     1      77.345  44.635  33.020  1.00  0.00    -0.236 NA
ATOM     10  S   UNL     1      76.438  43.878  30.747  1.00  0.00    -0.122 S 
ATOM     11  C   UNL     1      76.554  45.672  32.547  1.00  0.00     0.083 A 
ATOM     12  C   UNL     1      75.980  45.426  31.317  1.00  0.00     0.096 A 
BRANCH  11  13
ATOM     13  C   UNL     1      76.382  46.892  33.327  1.00  0.00     0.019 A 
ATOM     14  C   UNL     1      75.136  47.467  33.599  1.00  0.00     0.013 A 
ATOM     15  C   UNL     1      77.497  47.550  33.846  1.00  0.00     0.121 A 
ATOM     16  C   UNL     1      75.056  48.638  34.355  1.00  0.00     0.021 A 
ATOM     17  N   UNL     1      77.452  48.690  34.584  1.00  0.00    -0.264 NA
ATOM     18  C   UNL     1      76.229  49.206  34.821  1.00  0.00     0.111 A 
ENDBRANCH  11  13
ENDBRANCH   5   8
TORSDOF 2
ENDMDL
MODEL 9
REMARK VINA RESULT:      -5.2     25.634     27.710
REMARK SMILES Brc1ccc(-c2nc(-c3cccnc3)cs2)cc1
REMARK SMILES IDX 1 1 2 2 3 3 4 4 5 5 17 6 18 7 6 8 7 9 16 10 8 11 15 12 9 13
REMARK SMILES IDX 10 14 14 15 11 16 13 17 12 18
REMARK H PARENT
ROOT
ATOM      1  Br  UNL     1      99.224  31.973  29.435  1.00  0.00    -0.051 Br
ATOM      2  C   UNL     1      98.199  32.247  30.998  1.00  0.00     0.018 A 
ATOM      3  C   UNL     1      98.654  31.761  32.219  1.00  0.00     0.016 A 
ATOM      4  C   UNL     1      97.890  31.967  33.373  1.00  0.00     0.012 A 
ATOM      5  C   UNL     1      96.664  32.658  33.329  1.00  0.00     0.010 A 
ATOM      6  C   UNL     1      96.230  33.138  32.082  1.00  0.00     0.012 A 
ATOM      7  C   UNL     1      96.991  32.934  30.924  1.00  0.00     0.016 A 
ENDROOT
BRANCH   5   8
ATOM      8  C   UNL     1      95.908  32.841  34.587  1.00  0.00     0.124 A 
ATOM      9  N   UNL     1      95.779  34.002  35.203  1.00  0.00    -0.236 NA
ATOM     10  S   UNL     1      95.107  31.536  35.380  1.00  0.00    -0.122 S 
ATOM     11  C   UNL     1      95.019  33.884  36.358  1.00  0.00     0.083 A 
ATOM     12  C   UNL     1      94.570  32.603  36.607  1.00  0.00     0.096 A 
BRANCH  11  13
ATOM     13  C   UNL     1      94.751  35.047  37.195  1.00  0.00     0.019 A 
ATOM     14  C   UNL     1      93.716  35.101  38.135  1.00  0.00     0.013 A 
ATOM     15  C   UNL     1      95.548  36.185  37.081  1.00  0.00     0.121 A 
ATOM     16  C   UNL     1      93.525  36.254  38.899  1.00  0.00     0.021 A 
ATOM     17  N   UNL     1      95.388  37.321  37.809  1.00  0.00    -0.264 NA
ATOM     18  C   UNL     1      94.378  37.327  38.702  1.00  0.00     0.111 A 
ENDBRANCH  11  13
ENDBRANCH   5   8
TORSDOF 2
ENDMDL
