MODEL 1
REMARK VINA RESULT:      -7.8      0.000      0.000
REMARK SMILES Brc1ccc(/C(=C\c2ccccc2)Cn2ccnn2)cc1
REMARK SMILES IDX 6 1 7 2 5 3 2 4 3 5 21 6 4 7 20 8 1 9 14 10 15 11 16 12
REMARK SMILES IDX 19 13 17 14 18 15 8 16 9 17 13 18 10 19 12 20 11 21
REMARK H PARENT
ROOT
ATOM      1  C   UNL     1      87.378  50.770  44.016  1.00  0.00    -0.019 C 
ATOM      2  C   UNL     1      87.837  51.328  45.157  1.00  0.00     0.014 C 
ENDROOT
BRANCH   1   3
ATOM      3  C   UNL     1      85.932  50.703  43.710  1.00  0.00    -0.020 A 
ATOM      4  C   UNL     1      83.196  50.571  43.139  1.00  0.00     0.018 A 
ATOM      5  C   UNL     1      83.796  49.558  43.884  1.00  0.00     0.016 A 
ATOM      6  C   UNL     1      83.948  51.650  42.677  1.00  0.00     0.016 A 
ATOM      7  C   UNL     1      85.162  49.625  44.169  1.00  0.00     0.009 A 
ATOM      8  C   UNL     1      85.315  51.715  42.963  1.00  0.00     0.009 A 
ATOM      9  Br  UNL     1      81.348  50.482  42.750  1.00  0.00    -0.051 Br
ENDBRANCH   1   3
BRANCH   1  10
ATOM     10  C   UNL     1      88.249  50.186  42.916  1.00  0.00     0.182 C 
BRANCH  10  11
ATOM     11  N   UNL     1      88.447  51.038  41.752  1.00  0.00    -0.248 N 
ATOM     12  C   UNL     1      88.972  52.297  41.714  1.00  0.00     0.131 A 
ATOM     13  N   UNL     1      88.135  50.601  40.518  1.00  0.00    -0.067 NA
ATOM     14  C   UNL     1      88.949  52.618  40.379  1.00  0.00     0.157 A 
ATOM     15  N   UNL     1      88.435  51.572  39.665  1.00  0.00    -0.139 NA
ENDBRANCH  10  11
ENDBRANCH   1  10
BRANCH   2  16
ATOM     16  C   UNL     1      87.034  51.908  46.244  1.00  0.00    -0.025 A 
ATOM     17  C   UNL     1      86.738  51.187  47.406  1.00  0.00     0.008 A 
ATOM     18  C   UNL     1      86.587  53.230  46.126  1.00  0.00     0.008 A 
ATOM     19  C   UNL     1      85.985  51.771  48.426  1.00  0.00     0.001 A 
ATOM     20  C   UNL     1      85.835  53.813  47.148  1.00  0.00     0.001 A 
ATOM     21  C   UNL     1      85.532  53.084  48.297  1.00  0.00     0.000 A 
ENDBRANCH   2  16
TORSDOF 4
ENDMDL
MODEL 2
REMARK VINA RESULT:      -7.8      1.403      2.448
REMARK SMILES Brc1ccc(/C(=C\c2ccccc2)Cn2ccnn2)cc1
REMARK SMILES IDX 6 1 7 2 5 3 2 4 3 5 21 6 4 7 20 8 1 9 14 10 15 11 16 12
REMARK SMILES IDX 19 13 17 14 18 15 8 16 9 17 13 18 10 19 12 20 11 21
REMARK H PARENT
ROOT
ATOM      1  C   UNL     1      87.199  50.882  43.474  1.00  0.00    -0.019 C 
ATOM      2  C   UNL     1      87.802  51.377  44.577  1.00  0.00     0.014 C 
ENDROOT
BRANCH   1   3
ATOM      3  C   UNL     1      85.759  50.542  43.461  1.00  0.00    -0.020 A 
ATOM      4  C   UNL     1      83.035  49.906  43.431  1.00  0.00     0.018 A 
ATOM      5  C   UNL     1      83.453  51.175  43.036  1.00  0.00     0.016 A 
ATOM      6  C   UNL     1      83.964  48.951  43.840  1.00  0.00     0.016 A 
ATOM      7  C   UNL     1      84.813  51.491  43.050  1.00  0.00     0.009 A 
ATOM      8  C   UNL     1      85.325  49.269  43.855  1.00  0.00     0.009 A 
ATOM      9  Br  UNL     1      81.194  49.476  43.413  1.00  0.00    -0.051 Br
ENDBRANCH   1   3
BRANCH   1  10
ATOM     10  C   UNL     1      87.880  50.646  42.136  1.00  0.00     0.182 C 
BRANCH  10  11
ATOM     11  N   UNL     1      88.396  49.301  41.922  1.00  0.00    -0.248 N 
ATOM     12  C   UNL     1      89.495  48.725  42.489  1.00  0.00     0.131 A 
ATOM     13  N   UNL     1      87.755  48.439  41.111  1.00  0.00    -0.067 NA
ATOM     14  C   UNL     1      89.504  47.456  41.963  1.00  0.00     0.157 A 
ATOM     15  N   UNL     1      88.437  47.301  41.125  1.00  0.00    -0.139 NA
ENDBRANCH  10  11
ENDBRANCH   1  10
BRANCH   2  16
ATOM     16  C   UNL     1      87.184  51.626  45.887  1.00  0.00    -0.025 A 
ATOM     17  C   UNL     1      86.451  52.790  46.146  1.00  0.00     0.008 A 
ATOM     18  C   UNL     1      87.301  50.655  46.889  1.00  0.00     0.008 A 
ATOM     19  C   UNL     1      85.864  52.991  47.397  1.00  0.00     0.001 A 
ATOM     20  C   UNL     1      86.712  50.856  48.139  1.00  0.00     0.001 A 
ATOM     21  C   UNL     1      85.996  52.025  48.394  1.00  0.00     0.000 A 
ENDBRANCH   2  16
TORSDOF 4
ENDMDL
MODEL 3
REMARK VINA RESULT:      -7.6      2.406      2.930
REMARK SMILES Brc1ccc(/C(=C\c2ccccc2)Cn2ccnn2)cc1
REMARK SMILES IDX 6 1 7 2 5 3 2 4 3 5 21 6 4 7 20 8 1 9 14 10 15 11 16 12
REMARK SMILES IDX 19 13 17 14 18 15 8 16 9 17 13 18 10 19 12 20 11 21
REMARK H PARENT
ROOT
ATOM      1  C   UNL     1      86.225  52.331  43.606  1.00  0.00    -0.019 C 
ATOM      2  C   UNL     1      86.866  52.735  44.724  1.00  0.00     0.014 C 
ENDROOT
BRANCH   1   3
ATOM      3  C   UNL     1      85.213  51.252  43.637  1.00  0.00    -0.020 A 
ATOM      4  C   UNL     1      83.306  49.206  43.699  1.00  0.00     0.018 A 
ATOM      5  C   UNL     1      84.662  48.888  43.730  1.00  0.00     0.016 A 
ATOM      6  C   UNL     1      82.892  50.536  43.639  1.00  0.00     0.016 A 
ATOM      7  C   UNL     1      85.613  49.910  43.700  1.00  0.00     0.009 A 
ATOM      8  C   UNL     1      83.846  51.557  43.608  1.00  0.00     0.009 A 
ATOM      9  Br  UNL     1      82.016  47.824  43.739  1.00  0.00    -0.051 Br
ENDBRANCH   1   3
BRANCH   1  10
ATOM     10  C   UNL     1      86.420  52.927  42.221  1.00  0.00     0.182 C 
BRANCH  10  11
ATOM     11  N   UNL     1      85.627  54.113  41.930  1.00  0.00    -0.248 N 
ATOM     12  C   UNL     1      85.139  55.033  42.812  1.00  0.00     0.131 A 
ATOM     13  N   UNL     1      85.319  54.441  40.661  1.00  0.00    -0.067 NA
ATOM     14  C   UNL     1      84.494  55.942  42.009  1.00  0.00     0.157 A 
ATOM     15  N   UNL     1      84.614  55.563  40.702  1.00  0.00    -0.139 NA
ENDBRANCH  10  11
ENDBRANCH   1  10
BRANCH   2  16
ATOM     16  C   UNL     1      86.706  52.193  46.081  1.00  0.00    -0.025 A 
ATOM     17  C   UNL     1      87.450  51.095  46.527  1.00  0.00     0.008 A 
ATOM     18  C   UNL     1      85.811  52.816  46.960  1.00  0.00     0.008 A 
ATOM     19  C   UNL     1      87.284  50.612  47.827  1.00  0.00     0.001 A 
ATOM     20  C   UNL     1      85.648  52.333  48.260  1.00  0.00     0.001 A 
ATOM     21  C   UNL     1      86.382  51.230  48.693  1.00  0.00     0.000 A 
ENDBRANCH   2  16
TORSDOF 4
ENDMDL
MODEL 4
REMARK VINA RESULT:      -7.4      2.371      3.258
REMARK SMILES Brc1ccc(/C(=C\c2ccccc2)Cn2ccnn2)cc1
REMARK SMILES IDX 6 1 7 2 5 3 2 4 3 5 21 6 4 7 20 8 1 9 14 10 15 11 16 12
REMARK SMILES IDX 19 13 17 14 18 15 8 16 9 17 13 18 10 19 12 20 11 21
REMARK H PARENT
ROOT
ATOM      1  C   UNL     1      86.734  52.780  42.282  1.00  0.00    -0.019 C 
ATOM      2  C   UNL     1      87.086  53.962  42.831  1.00  0.00     0.014 C 
ENDROOT
BRANCH   1   3
ATOM      3  C   UNL     1      85.353  52.257  42.381  1.00  0.00    -0.020 A 
ATOM      4  C   UNL     1      82.742  51.268  42.559  1.00  0.00     0.018 A 
ATOM      5  C   UNL     1      83.089  52.119  41.511  1.00  0.00     0.016 A 
ATOM      6  C   UNL     1      83.686  50.905  43.518  1.00  0.00     0.016 A 
ATOM      7  C   UNL     1      84.393  52.611  41.423  1.00  0.00     0.009 A 
ATOM      8  C   UNL     1      84.990  51.400  43.428  1.00  0.00     0.009 A 
ATOM      9  Br  UNL     1      80.977  50.602  42.682  1.00  0.00    -0.051 Br
ENDBRANCH   1   3
BRANCH   1  10
ATOM     10  C   UNL     1      87.660  51.873  41.489  1.00  0.00     0.182 C 
BRANCH  10  11
ATOM     11  N   UNL     1      88.561  52.548  40.566  1.00  0.00    -0.248 N 
ATOM     12  C   UNL     1      89.899  52.772  40.713  1.00  0.00     0.131 A 
ATOM     13  N   UNL     1      88.116  53.008  39.382  1.00  0.00    -0.067 NA
ATOM     14  C   UNL     1      90.250  53.417  39.552  1.00  0.00     0.157 A 
ATOM     15  N   UNL     1      89.149  53.553  38.754  1.00  0.00    -0.139 NA
ENDBRANCH  10  11
ENDBRANCH   1  10
BRANCH   2  16
ATOM     16  C   UNL     1      86.224  54.873  43.600  1.00  0.00    -0.025 A 
ATOM     17  C   UNL     1      85.345  55.761  42.969  1.00  0.00     0.008 A 
ATOM     18  C   UNL     1      86.260  54.822  44.998  1.00  0.00     0.008 A 
ATOM     19  C   UNL     1      84.529  56.603  43.728  1.00  0.00     0.001 A 
ATOM     20  C   UNL     1      85.443  55.664  45.755  1.00  0.00     0.001 A 
ATOM     21  C   UNL     1      84.579  56.556  45.121  1.00  0.00     0.000 A 
ENDBRANCH   2  16
TORSDOF 4
ENDMDL
MODEL 5
REMARK VINA RESULT:      -7.4      2.993      5.537
REMARK SMILES Brc1ccc(/C(=C\c2ccccc2)Cn2ccnn2)cc1
REMARK SMILES IDX 6 1 7 2 5 3 2 4 3 5 21 6 4 7 20 8 1 9 14 10 15 11 16 12
REMARK SMILES IDX 19 13 17 14 18 15 8 16 9 17 13 18 10 19 12 20 11 21
REMARK H PARENT
ROOT
ATOM      1  C   UNL     1      86.761  51.203  41.919  1.00  0.00    -0.019 C 
ATOM      2  C   UNL     1      87.581  50.551  41.067  1.00  0.00     0.014 C 
ENDROOT
BRANCH   1   3
ATOM      3  C   UNL     1      86.798  50.955  43.377  1.00  0.00    -0.020 A 
ATOM      4  C   UNL     1      86.871  50.493  46.135  1.00  0.00     0.018 A 
ATOM      5  C   UNL     1      87.802  51.351  45.553  1.00  0.00     0.016 A 
ATOM      6  C   UNL     1      85.903  49.864  45.355  1.00  0.00     0.016 A 
ATOM      7  C   UNL     1      87.764  51.581  44.177  1.00  0.00     0.009 A 
ATOM      8  C   UNL     1      85.867  50.095  43.976  1.00  0.00     0.009 A 
ATOM      9  Br  UNL     1      86.922  50.178  47.999  1.00  0.00    -0.051 Br
ENDBRANCH   1   3
BRANCH   1  10
ATOM     10  C   UNL     1      85.749  52.264  41.520  1.00  0.00     0.182 C 
BRANCH  10  11
ATOM     11  N   UNL     1      85.816  53.510  42.270  1.00  0.00    -0.248 N 
ATOM     12  C   UNL     1      84.844  54.079  43.040  1.00  0.00     0.131 A 
ATOM     13  N   UNL     1      86.947  54.239  42.294  1.00  0.00    -0.067 NA
ATOM     14  C   UNL     1      85.440  55.216  43.528  1.00  0.00     0.157 A 
ATOM     15  N   UNL     1      86.722  55.297  43.061  1.00  0.00    -0.139 NA
ENDBRANCH  10  11
ENDBRANCH   1  10
BRANCH   2  16
ATOM     16  C   UNL     1      88.577  49.524  41.408  1.00  0.00    -0.025 A 
ATOM     17  C   UNL     1      88.242  48.166  41.467  1.00  0.00     0.008 A 
ATOM     18  C   UNL     1      89.901  49.913  41.643  1.00  0.00     0.008 A 
ATOM     19  C   UNL     1      89.214  47.213  41.780  1.00  0.00     0.001 A 
ATOM     20  C   UNL     1      90.872  48.959  41.955  1.00  0.00     0.001 A 
ATOM     21  C   UNL     1      90.528  47.610  42.026  1.00  0.00     0.000 A 
ENDBRANCH   2  16
TORSDOF 4
ENDMDL
MODEL 6
REMARK VINA RESULT:      -7.3      2.778      5.011
REMARK SMILES Brc1ccc(/C(=C\c2ccccc2)Cn2ccnn2)cc1
REMARK SMILES IDX 6 1 7 2 5 3 2 4 3 5 21 6 4 7 20 8 1 9 14 10 15 11 16 12
REMARK SMILES IDX 19 13 17 14 18 15 8 16 9 17 13 18 10 19 12 20 11 21
REMARK H PARENT
ROOT
ATOM      1  C   UNL     1      86.913  52.526  42.204  1.00  0.00    -0.019 C 
ATOM      2  C   UNL     1      85.950  52.276  41.290  1.00  0.00     0.014 C 
ENDROOT
BRANCH   1   3
ATOM      3  C   UNL     1      86.655  53.364  43.396  1.00  0.00    -0.020 A 
ATOM      4  C   UNL     1      86.165  54.956  45.643  1.00  0.00     0.018 A 
ATOM      5  C   UNL     1      86.667  55.538  44.481  1.00  0.00     0.016 A 
ATOM      6  C   UNL     1      85.904  53.588  45.695  1.00  0.00     0.016 A 
ATOM      7  C   UNL     1      86.909  54.742  43.359  1.00  0.00     0.009 A 
ATOM      8  C   UNL     1      86.149  52.794  44.571  1.00  0.00     0.009 A 
ATOM      9  Br  UNL     1      85.837  56.031  47.164  1.00  0.00    -0.051 Br
ENDBRANCH   1   3
BRANCH   1  10
ATOM     10  C   UNL     1      88.329  51.977  42.156  1.00  0.00     0.182 C 
BRANCH  10  11
ATOM     11  N   UNL     1      89.072  52.261  40.936  1.00  0.00    -0.248 N 
ATOM     12  C   UNL     1      89.911  53.308  40.691  1.00  0.00     0.131 A 
ATOM     13  N   UNL     1      89.012  51.424  39.884  1.00  0.00    -0.067 NA
ATOM     14  C   UNL     1      90.354  53.076  39.411  1.00  0.00     0.157 A 
ATOM     15  N   UNL     1      89.794  51.924  38.935  1.00  0.00    -0.139 NA
ENDBRANCH  10  11
ENDBRANCH   1  10
BRANCH   2  16
ATOM     16  C   UNL     1      84.568  52.781  41.299  1.00  0.00    -0.025 A 
ATOM     17  C   UNL     1      83.524  52.055  41.883  1.00  0.00     0.008 A 
ATOM     18  C   UNL     1      84.301  54.036  40.740  1.00  0.00     0.008 A 
ATOM     19  C   UNL     1      82.225  52.568  41.887  1.00  0.00     0.001 A 
ATOM     20  C   UNL     1      83.002  54.548  40.747  1.00  0.00     0.001 A 
ATOM     21  C   UNL     1      81.964  53.813  41.318  1.00  0.00     0.000 A 
ENDBRANCH   2  16
TORSDOF 4
ENDMDL
MODEL 7
REMARK VINA RESULT:      -7.2      3.551      5.640
REMARK SMILES Brc1ccc(/C(=C\c2ccccc2)Cn2ccnn2)cc1
REMARK SMILES IDX 6 1 7 2 5 3 2 4 3 5 21 6 4 7 20 8 1 9 14 10 15 11 16 12
REMARK SMILES IDX 19 13 17 14 18 15 8 16 9 17 13 18 10 19 12 20 11 21
REMARK H PARENT
ROOT
ATOM      1  C   UNL     1      86.003  53.405  44.702  1.00  0.00    -0.019 C 
ATOM      2  C   UNL     1      84.663  53.259  44.618  1.00  0.00     0.014 C 
ENDROOT
BRANCH   1   3
ATOM      3  C   UNL     1      86.932  52.474  44.024  1.00  0.00    -0.020 A 
ATOM      4  C   UNL     1      88.690  50.720  42.736  1.00  0.00     0.018 A 
ATOM      5  C   UNL     1      88.268  51.877  42.085  1.00  0.00     0.016 A 
ATOM      6  C   UNL     1      88.244  50.430  44.024  1.00  0.00     0.016 A 
ATOM      7  C   UNL     1      87.391  52.753  42.729  1.00  0.00     0.009 A 
ATOM      8  C   UNL     1      87.365  51.307  44.667  1.00  0.00     0.009 A 
ATOM      9  Br  UNL     1      89.876  49.532  41.865  1.00  0.00    -0.051 Br
ENDBRANCH   1   3
BRANCH   1  10
ATOM     10  C   UNL     1      86.716  54.521  45.448  1.00  0.00     0.182 C 
BRANCH  10  11
ATOM     11  N   UNL     1      86.355  55.873  45.050  1.00  0.00    -0.248 N 
ATOM     12  C   UNL     1      85.598  56.776  45.739  1.00  0.00     0.131 A 
ATOM     13  N   UNL     1      86.806  56.395  43.894  1.00  0.00    -0.067 NA
ATOM     14  C   UNL     1      85.595  57.884  44.927  1.00  0.00     0.157 A 
ATOM     15  N   UNL     1      86.335  57.632  43.806  1.00  0.00    -0.139 NA
ENDBRANCH  10  11
ENDBRANCH   1  10
BRANCH   2  16
ATOM     16  C   UNL     1      83.931  52.201  43.905  1.00  0.00    -0.025 A 
ATOM     17  C   UNL     1      83.799  50.913  44.435  1.00  0.00     0.008 A 
ATOM     18  C   UNL     1      83.321  52.503  42.682  1.00  0.00     0.008 A 
ATOM     19  C   UNL     1      83.086  49.934  43.740  1.00  0.00     0.001 A 
ATOM     20  C   UNL     1      82.607  51.524  41.988  1.00  0.00     0.001 A 
ATOM     21  C   UNL     1      82.491  50.239  42.516  1.00  0.00     0.000 A 
ENDBRANCH   2  16
TORSDOF 4
ENDMDL
MODEL 8
REMARK VINA RESULT:      -7.0      3.033      4.217
REMARK SMILES Brc1ccc(/C(=C\c2ccccc2)Cn2ccnn2)cc1
REMARK SMILES IDX 6 1 7 2 5 3 2 4 3 5 21 6 4 7 20 8 1 9 14 10 15 11 16 12
REMARK SMILES IDX 19 13 17 14 18 15 8 16 9 17 13 18 10 19 12 20 11 21
REMARK H PARENT
ROOT
ATOM      1  C   UNL     1      86.980  52.773  43.781  1.00  0.00    -0.019 C 
ATOM      2  C   UNL     1      86.949  53.844  42.959  1.00  0.00     0.014 C 
ENDROOT
BRANCH   1   3
ATOM      3  C   UNL     1      86.281  52.774  45.085  1.00  0.00    -0.020 A 
ATOM      4  C   UNL     1      84.967  52.778  47.555  1.00  0.00     0.018 A 
ATOM      5  C   UNL     1      86.333  52.509  47.500  1.00  0.00     0.016 A 
ATOM      6  C   UNL     1      84.250  53.046  46.390  1.00  0.00     0.016 A 
ATOM      7  C   UNL     1      86.988  52.508  46.266  1.00  0.00     0.009 A 
ATOM      8  C   UNL     1      84.908  53.044  45.156  1.00  0.00     0.009 A 
ATOM      9  Br  UNL     1      84.076  52.777  49.223  1.00  0.00    -0.051 Br
ENDBRANCH   1   3
BRANCH   1  10
ATOM     10  C   UNL     1      87.681  51.459  43.481  1.00  0.00     0.182 C 
BRANCH  10  11
ATOM     11  N   UNL     1      88.252  51.343  42.147  1.00  0.00    -0.248 N 
ATOM     12  C   UNL     1      89.555  51.506  41.775  1.00  0.00     0.131 A 
ATOM     13  N   UNL     1      87.483  51.001  41.096  1.00  0.00    -0.067 NA
ATOM     14  C   UNL     1      89.540  51.261  40.423  1.00  0.00     0.157 A 
ATOM     15  N   UNL     1      88.268  50.956  40.028  1.00  0.00    -0.139 NA
ENDBRANCH  10  11
ENDBRANCH   1  10
BRANCH   2  16
ATOM     16  C   UNL     1      86.281  55.131  43.205  1.00  0.00    -0.025 A 
ATOM     17  C   UNL     1      85.065  55.457  42.594  1.00  0.00     0.008 A 
ATOM     18  C   UNL     1      86.860  56.035  44.103  1.00  0.00     0.008 A 
ATOM     19  C   UNL     1      84.448  56.681  42.860  1.00  0.00     0.001 A 
ATOM     20  C   UNL     1      86.241  57.259  44.369  1.00  0.00     0.001 A 
ATOM     21  C   UNL     1      85.037  57.583  43.746  1.00  0.00     0.000 A 
ENDBRANCH   2  16
TORSDOF 4
ENDMDL
MODEL 9
REMARK VINA RESULT:      -6.9      3.696      6.126
REMARK SMILES Brc1ccc(/C(=C\c2ccccc2)Cn2ccnn2)cc1
REMARK SMILES IDX 6 1 7 2 5 3 2 4 3 5 21 6 4 7 20 8 1 9 14 10 15 11 16 12
REMARK SMILES IDX 19 13 17 14 18 15 8 16 9 17 13 18 10 19 12 20 11 21
REMARK H PARENT
ROOT
ATOM      1  C   UNL     1      86.271  48.195  43.436  1.00  0.00    -0.019 C 
ATOM      2  C   UNL     1      87.153  48.034  42.425  1.00  0.00     0.014 C 
ENDROOT
BRANCH   1   3
ATOM      3  C   UNL     1      86.213  49.445  44.226  1.00  0.00    -0.020 A 
ATOM      4  C   UNL     1      86.095  51.808  45.718  1.00  0.00     0.018 A 
ATOM      5  C   UNL     1      85.141  51.565  44.732  1.00  0.00     0.016 A 
ATOM      6  C   UNL     1      87.107  50.883  45.967  1.00  0.00     0.016 A 
ATOM      7  C   UNL     1      85.201  50.384  43.989  1.00  0.00     0.009 A 
ATOM      8  C   UNL     1      87.166  49.702  45.221  1.00  0.00     0.009 A 
ATOM      9  Br  UNL     1      86.019  53.407  46.725  1.00  0.00    -0.051 Br
ENDBRANCH   1   3
BRANCH   1  10
ATOM     10  C   UNL     1      85.235  47.169  43.865  1.00  0.00     0.182 C 
BRANCH  10  11
ATOM     11  N   UNL     1      85.481  45.804  43.422  1.00  0.00    -0.248 N 
ATOM     12  C   UNL     1      86.248  44.852  44.029  1.00  0.00     0.131 A 
ATOM     13  N   UNL     1      84.895  45.325  42.310  1.00  0.00    -0.067 NA
ATOM     14  C   UNL     1      86.113  43.757  43.210  1.00  0.00     0.157 A 
ATOM     15  N   UNL     1      85.286  44.065  42.167  1.00  0.00    -0.139 NA
ENDBRANCH  10  11
ENDBRANCH   1  10
BRANCH   2  16
ATOM     16  C   UNL     1      88.167  48.998  41.973  1.00  0.00    -0.025 A 
ATOM     17  C   UNL     1      87.822  50.141  41.243  1.00  0.00     0.008 A 
ATOM     18  C   UNL     1      89.508  48.784  42.316  1.00  0.00     0.008 A 
ATOM     19  C   UNL     1      88.807  51.044  40.840  1.00  0.00     0.001 A 
ATOM     20  C   UNL     1      90.491  49.689  41.914  1.00  0.00     0.001 A 
ATOM     21  C   UNL     1      90.142  50.818  41.174  1.00  0.00     0.000 A 
ENDBRANCH   2  16
TORSDOF 4
ENDMDL
