MODEL 1
REMARK minimizedAffinity -7.6888628
REMARK CNNscore 0.945955217
REMARK CNNaffinity 8.06947327
REMARK SMILES C=CC(=O)Nc1cc(Nc2nccc(-c3cn(C)c4ccccc34)n2)c(OC)cc1N(C)CCN(C)C
REMARK SMILES IDX 6 1 7 2 8 3 26 4 29 5 30 6 5 7 3 8 4 9 2 11 1 12 31 13 32 14
REMARK SMILES IDX 33 15 34 16 35 17 36 18 37 19 9 20 10 22 11 23 25 24 12 25
REMARK SMILES IDX 14 26 13 27 15 28 16 29 24 30 17 31 23 32 19 33 22 34 20 35
REMARK SMILES IDX 21 36 18 37 27 38 28 39
REMARK H PARENT 5 10 9 21
ROOT
ATOM      1  C   UNL     1      -0.110 -50.602  16.426  1.00  0.00     0.067 A 
ATOM      2  C   UNL     1       0.398 -51.199  17.585  1.00  0.00     0.058 A 
ATOM      3  C   UNL     1       1.578 -51.957  17.551  1.00  0.00     0.086 A 
ATOM      4  C   UNL     1       2.250 -52.111  16.315  1.00  0.00     0.144 A 
ATOM      5  C   UNL     1       1.745 -51.518  15.155  1.00  0.00     0.076 A 
ATOM      6  C   UNL     1       0.560 -50.765  15.192  1.00  0.00     0.064 A 
ENDROOT
BRANCH   1   7
ATOM      7  N   UNL     1      -1.294 -49.833  16.394  1.00  0.00    -0.321 N 
ATOM      8  C   UNL     1      -2.462 -50.037  17.084  1.00  0.00     0.247 C 
ATOM      9  O   UNL     1      -2.688 -50.869  17.952  1.00  0.00    -0.270 OA
ATOM     10  H   UNL     1      -1.202 -49.003  15.816  1.00  0.00     0.170 HD
BRANCH   8  11
ATOM     11  C   UNL     1      -3.534 -49.057  16.758  1.00  0.00     0.064 C 
ATOM     12  C   UNL     1      -3.863 -48.691  15.513  1.00  0.00     0.014 C 
ENDBRANCH   8  11
ENDBRANCH   1   7
BRANCH   6  13
ATOM     13  N   UNL     1       0.032 -50.123  14.024  1.00  0.00    -0.372 N 
ATOM     14  C   UNL     1       1.133 -49.621  13.190  1.00  0.00     0.143 C 
BRANCH  13  15
ATOM     15  C   UNL     1      -0.947 -50.978  13.302  1.00  0.00     0.131 C 
BRANCH  15  16
ATOM     16  C   UNL     1      -0.271 -51.753  12.141  1.00  0.00     0.105 C 
BRANCH  16  17
ATOM     17  N   UNL     1      -1.072 -52.053  10.935  1.00  0.00    -0.308 NA
ATOM     18  C   UNL     1      -2.507 -51.882  11.138  1.00  0.00     0.105 C 
ATOM     19  C   UNL     1      -0.622 -51.293   9.771  1.00  0.00     0.105 C 
ENDBRANCH  16  17
ENDBRANCH  15  16
ENDBRANCH  13  15
ENDBRANCH   6  13
BRANCH   3  20
ATOM     20  N   UNL     1       2.129 -52.591  18.679  1.00  0.00    -0.321 N 
ATOM     21  H   UNL     1       3.061 -52.960  18.537  1.00  0.00     0.170 HD
BRANCH  20  22
ATOM     22  C   UNL     1       1.726 -52.786  19.992  1.00  0.00     0.227 A 
ATOM     23  N   UNL     1       2.049 -53.894  20.670  1.00  0.00    -0.221 NA
ATOM     24  N   UNL     1       1.002 -51.789  20.522  1.00  0.00    -0.213 NA
ATOM     25  C   UNL     1       1.615 -54.003  21.935  1.00  0.00     0.117 A 
ATOM     26  C   UNL     1       0.570 -51.939  21.792  1.00  0.00     0.078 A 
ATOM     27  C   UNL     1       0.860 -53.044  22.558  1.00  0.00     0.049 A 
BRANCH  26  28
ATOM     28  C   UNL     1      -0.219 -50.840  22.332  1.00  0.00     0.026 A 
ATOM     29  C   UNL     1      -0.901 -50.938  23.531  1.00  0.00     0.096 A 
ATOM     30  C   UNL     1      -0.462 -49.522  21.821  1.00  0.00     0.009 A 
ATOM     31  N   UNL     1      -1.559 -49.761  23.751  1.00  0.00    -0.350 N 
ATOM     32  C   UNL     1      -0.028 -48.807  20.682  1.00  0.00     0.011 A 
ATOM     33  C   UNL     1      -1.316 -48.876  22.723  1.00  0.00     0.048 A 
ATOM     34  C   UNL     1      -0.470 -47.496  20.470  1.00  0.00     0.001 A 
ATOM     35  C   UNL     1      -1.767 -47.561  22.517  1.00  0.00     0.027 A 
ATOM     36  C   UNL     1      -1.331 -46.885  21.374  1.00  0.00     0.002 A 
ATOM     37  C   UNL     1      -2.383 -49.484  24.907  1.00  0.00     0.149 C 
ENDBRANCH  26  28
ENDBRANCH  20  22
ENDBRANCH   3  20
BRANCH   4  38
ATOM     38  O   UNL     1       3.402 -52.866  16.370  1.00  0.00    -0.494 OA
ATOM     39  C   UNL     1       4.513 -52.424  15.603  1.00  0.00     0.278 C 
ENDBRANCH   4  38
TORSDOF 10
ENDMDL
MODEL 2
REMARK minimizedAffinity -7.42174387
REMARK CNNscore 0.922351122
REMARK CNNaffinity 7.99129868
REMARK SMILES C=CC(=O)Nc1cc(Nc2nccc(-c3cn(C)c4ccccc34)n2)c(OC)cc1N(C)CCN(C)C
REMARK SMILES IDX 6 1 7 2 8 3 26 4 29 5 30 6 5 7 3 8 4 9 2 11 1 12 31 13 32 14
REMARK SMILES IDX 33 15 34 16 35 17 36 18 37 19 9 20 10 22 11 23 25 24 12 25
REMARK SMILES IDX 14 26 13 27 15 28 16 29 24 30 17 31 23 32 19 33 22 34 20 35
REMARK SMILES IDX 21 36 18 37 27 38 28 39
REMARK H PARENT 5 10 9 21
ROOT
ATOM      1  C   UNL     1       0.035 -50.325  16.733  1.00  0.00     0.067 A 
ATOM      2  C   UNL     1       0.406 -51.130  17.817  1.00  0.00     0.058 A 
ATOM      3  C   UNL     1       1.518 -51.981  17.740  1.00  0.00     0.086 A 
ATOM      4  C   UNL     1       2.263 -52.016  16.538  1.00  0.00     0.144 A 
ATOM      5  C   UNL     1       1.896 -51.217  15.452  1.00  0.00     0.076 A 
ATOM      6  C   UNL     1       0.778 -50.370  15.531  1.00  0.00     0.064 A 
ENDROOT
BRANCH   1   7
ATOM      7  N   UNL     1      -1.075 -49.453  16.746  1.00  0.00    -0.321 N 
ATOM      8  C   UNL     1      -2.371 -49.727  17.103  1.00  0.00     0.247 C 
ATOM      9  O   UNL     1      -2.816 -50.760  17.586  1.00  0.00    -0.270 OA
ATOM     10  H   UNL     1      -0.822 -48.499  16.506  1.00  0.00     0.170 HD
BRANCH   8  11
ATOM     11  C   UNL     1      -3.299 -48.576  16.935  1.00  0.00     0.064 C 
ATOM     12  C   UNL     1      -4.224 -48.492  15.971  1.00  0.00     0.014 C 
ENDBRANCH   8  11
ENDBRANCH   1   7
BRANCH   6  13
ATOM     13  N   UNL     1       0.392 -49.519  14.443  1.00  0.00    -0.372 N 
ATOM     14  C   UNL     1       1.562 -49.218  13.607  1.00  0.00     0.143 C 
BRANCH  13  15
ATOM     15  C   UNL     1      -0.778 -50.051  13.697  1.00  0.00     0.131 C 
BRANCH  15  16
ATOM     16  C   UNL     1      -0.482 -51.454  13.107  1.00  0.00     0.105 C 
BRANCH  16  17
ATOM     17  N   UNL     1      -0.399 -51.597  11.638  1.00  0.00    -0.308 NA
ATOM     18  C   UNL     1       0.783 -52.327  11.195  1.00  0.00     0.105 C 
ATOM     19  C   UNL     1      -1.611 -52.186  11.072  1.00  0.00     0.105 C 
ENDBRANCH  16  17
ENDBRANCH  15  16
ENDBRANCH  13  15
ENDBRANCH   6  13
BRANCH   3  20
ATOM     20  N   UNL     1       1.929 -52.820  18.791  1.00  0.00    -0.321 N 
ATOM     21  H   UNL     1       2.699 -53.435  18.557  1.00  0.00     0.170 HD
BRANCH  20  22
ATOM     22  C   UNL     1       1.574 -52.975  20.123  1.00  0.00     0.227 A 
ATOM     23  N   UNL     1       2.030 -53.995  20.859  1.00  0.00    -0.221 NA
ATOM     24  N   UNL     1       0.754 -52.032  20.609  1.00  0.00    -0.213 NA
ATOM     25  C   UNL     1       1.633 -54.071  22.139  1.00  0.00     0.117 A 
ATOM     26  C   UNL     1       0.364 -52.148  21.896  1.00  0.00     0.078 A 
ATOM     27  C   UNL     1       0.789 -53.163  22.720  1.00  0.00     0.049 A 
BRANCH  26  28
ATOM     28  C   UNL     1      -0.532 -51.109  22.388  1.00  0.00     0.026 A 
ATOM     29  C   UNL     1      -0.452 -49.798  21.955  1.00  0.00     0.096 A 
ATOM     30  C   UNL     1      -1.605 -51.169  23.338  1.00  0.00     0.009 A 
ATOM     31  N   UNL     1      -1.401 -49.068  22.612  1.00  0.00    -0.350 N 
ATOM     32  C   UNL     1      -2.200 -52.205  24.093  1.00  0.00     0.011 A 
ATOM     33  C   UNL     1      -2.120 -49.874  23.469  1.00  0.00     0.048 A 
ATOM     34  C   UNL     1      -3.261 -51.917  24.959  1.00  0.00     0.001 A 
ATOM     35  C   UNL     1      -3.183 -49.575  24.336  1.00  0.00     0.027 A 
ATOM     36  C   UNL     1      -3.742 -50.617  25.080  1.00  0.00     0.002 A 
ATOM     37  C   UNL     1      -1.624 -47.651  22.424  1.00  0.00     0.149 C 
ENDBRANCH  26  28
ENDBRANCH  20  22
ENDBRANCH   3  20
BRANCH   4  38
ATOM     38  O   UNL     1       3.341 -52.876  16.547  1.00  0.00    -0.494 OA
ATOM     39  C   UNL     1       4.418 -52.585  15.668  1.00  0.00     0.278 C 
ENDBRANCH   4  38
TORSDOF 10
ENDMDL
MODEL 3
REMARK minimizedAffinity -6.7506752
REMARK CNNscore 0.783956647
REMARK CNNaffinity 7.86171484
REMARK SMILES C=CC(=O)Nc1cc(Nc2nccc(-c3cn(C)c4ccccc34)n2)c(OC)cc1N(C)CCN(C)C
REMARK SMILES IDX 6 1 7 2 8 3 26 4 29 5 30 6 5 7 3 8 4 9 2 11 1 12 31 13 32 14
REMARK SMILES IDX 33 15 34 16 35 17 36 18 37 19 9 20 10 22 11 23 25 24 12 25
REMARK SMILES IDX 14 26 13 27 15 28 16 29 24 30 17 31 23 32 19 33 22 34 20 35
REMARK SMILES IDX 21 36 18 37 27 38 28 39
REMARK H PARENT 5 10 9 21
ROOT
ATOM      1  C   UNL     1       0.004 -50.232  21.451  1.00  0.00     0.067 A 
ATOM      2  C   UNL     1       0.533 -50.740  20.260  1.00  0.00     0.058 A 
ATOM      3  C   UNL     1       1.057 -52.040  20.196  1.00  0.00     0.086 A 
ATOM      4  C   UNL     1       1.046 -52.833  21.367  1.00  0.00     0.144 A 
ATOM      5  C   UNL     1       0.521 -52.329  22.561  1.00  0.00     0.076 A 
ATOM      6  C   UNL     1       0.002 -51.025  22.621  1.00  0.00     0.064 A 
ENDROOT
BRANCH   1   7
ATOM      7  N   UNL     1      -0.533 -48.932  21.581  1.00  0.00    -0.321 N 
ATOM      8  C   UNL     1      -1.794 -48.495  21.265  1.00  0.00     0.247 C 
ATOM      9  O   UNL     1      -2.754 -49.164  20.903  1.00  0.00    -0.270 OA
ATOM     10  H   UNL     1       0.117 -48.286  22.018  1.00  0.00     0.170 HD
BRANCH   8  11
ATOM     11  C   UNL     1      -1.997 -47.036  21.474  1.00  0.00     0.064 C 
ATOM     12  C   UNL     1      -1.057 -46.207  21.942  1.00  0.00     0.014 C 
ENDBRANCH   8  11
ENDBRANCH   1   7
BRANCH   6  13
ATOM     13  N   UNL     1      -0.567 -50.490  23.824  1.00  0.00    -0.372 N 
ATOM     14  C   UNL     1      -1.889 -51.087  24.059  1.00  0.00     0.143 C 
BRANCH  13  15
ATOM     15  C   UNL     1       0.364 -50.582  24.979  1.00  0.00     0.131 C 
BRANCH  15  16
ATOM     16  C   UNL     1      -0.202 -51.505  26.089  1.00  0.00     0.105 C 
BRANCH  16  17
ATOM     17  N   UNL     1       0.686 -52.536  26.668  1.00  0.00    -0.308 NA
ATOM     18  C   UNL     1       0.995 -52.306  28.075  1.00  0.00     0.105 C 
ATOM     19  C   UNL     1       0.166 -53.887  26.468  1.00  0.00     0.105 C 
ENDBRANCH  16  17
ENDBRANCH  15  16
ENDBRANCH  13  15
ENDBRANCH   6  13
BRANCH   3  20
ATOM     20  N   UNL     1       1.613 -52.599  19.032  1.00  0.00    -0.321 N 
ATOM     21  H   UNL     1       1.923 -53.557  19.135  1.00  0.00     0.170 HD
BRANCH  20  22
ATOM     22  C   UNL     1       1.789 -52.172  17.724  1.00  0.00     0.227 A 
ATOM     23  N   UNL     1       2.914 -52.428  17.046  1.00  0.00    -0.221 NA
ATOM     24  N   UNL     1       0.755 -51.499  17.198  1.00  0.00    -0.213 NA
ATOM     25  C   UNL     1       3.003 -51.975  15.785  1.00  0.00     0.117 A 
ATOM     26  C   UNL     1       0.885 -51.046  15.933  1.00  0.00     0.078 A 
ATOM     27  C   UNL     1       2.006 -51.268  15.167  1.00  0.00     0.049 A 
BRANCH  26  28
ATOM     28  C   UNL     1      -0.255 -50.313  15.397  1.00  0.00     0.026 A 
ATOM     29  C   UNL     1      -0.267 -49.800  14.113  1.00  0.00     0.096 A 
ATOM     30  C   UNL     1      -1.515 -49.974  15.993  1.00  0.00     0.009 A 
ATOM     31  N   UNL     1      -1.454 -49.153  13.918  1.00  0.00    -0.350 N 
ATOM     32  C   UNL     1      -2.120 -50.236  17.243  1.00  0.00     0.011 A 
ATOM     33  C   UNL     1      -2.238 -49.235  15.049  1.00  0.00     0.048 A 
ATOM     34  C   UNL     1      -3.400 -49.741  17.517  1.00  0.00     0.001 A 
ATOM     35  C   UNL     1      -3.522 -48.733  15.315  1.00  0.00     0.027 A 
ATOM     36  C   UNL     1      -4.088 -48.995  16.565  1.00  0.00     0.002 A 
ATOM     37  C   UNL     1      -1.834 -48.485  12.693  1.00  0.00     0.149 C 
ENDBRANCH  26  28
ENDBRANCH  20  22
ENDBRANCH   3  20
BRANCH   4  38
ATOM     38  O   UNL     1       1.576 -54.097  21.219  1.00  0.00    -0.494 OA
ATOM     39  C   UNL     1       1.774 -54.867  22.396  1.00  0.00     0.278 C 
ENDBRANCH   4  38
TORSDOF 10
ENDMDL
MODEL 4
REMARK minimizedAffinity -5.92173862
REMARK CNNscore 0.639295399
REMARK CNNaffinity 7.60333824
REMARK SMILES C=CC(=O)Nc1cc(Nc2nccc(-c3cn(C)c4ccccc34)n2)c(OC)cc1N(C)CCN(C)C
REMARK SMILES IDX 6 1 7 2 8 3 26 4 29 5 30 6 5 7 3 8 4 9 2 11 1 12 31 13 32 14
REMARK SMILES IDX 33 15 34 16 35 17 36 18 37 19 9 20 10 22 11 23 25 24 12 25
REMARK SMILES IDX 14 26 13 27 15 28 16 29 24 30 17 31 23 32 19 33 22 34 20 35
REMARK SMILES IDX 21 36 18 37 27 38 28 39
REMARK H PARENT 5 10 9 21
ROOT
ATOM      1  C   UNL     1      -1.338 -50.387  21.426  1.00  0.00     0.067 A 
ATOM      2  C   UNL     1      -0.422 -50.736  20.428  1.00  0.00     0.058 A 
ATOM      3  C   UNL     1       0.479 -51.795  20.610  1.00  0.00     0.086 A 
ATOM      4  C   UNL     1       0.448 -52.509  21.831  1.00  0.00     0.144 A 
ATOM      5  C   UNL     1      -0.463 -52.163  22.832  1.00  0.00     0.076 A 
ATOM      6  C   UNL     1      -1.360 -51.098  22.648  1.00  0.00     0.064 A 
ENDROOT
BRANCH   1   7
ATOM      7  N   UNL     1      -2.266 -49.329  21.306  1.00  0.00    -0.321 N 
ATOM      8  C   UNL     1      -2.023 -47.979  21.292  1.00  0.00     0.247 C 
ATOM      9  O   UNL     1      -0.939 -47.410  21.275  1.00  0.00    -0.270 OA
ATOM     10  H   UNL     1      -3.215 -49.660  21.158  1.00  0.00     0.170 HD
BRANCH   8  11
ATOM     11  C   UNL     1      -3.253 -47.146  21.212  1.00  0.00     0.064 C 
ATOM     12  C   UNL     1      -3.709 -46.587  20.085  1.00  0.00     0.014 C 
ENDBRANCH   8  11
ENDBRANCH   1   7
BRANCH   6  13
ATOM     13  N   UNL     1      -2.324 -50.737  23.646  1.00  0.00    -0.372 N 
ATOM     14  C   UNL     1      -2.992 -51.943  24.155  1.00  0.00     0.143 C 
BRANCH  13  15
ATOM     15  C   UNL     1      -1.746 -49.862  24.700  1.00  0.00     0.131 C 
BRANCH  15  16
ATOM     16  C   UNL     1      -2.773 -48.806  25.185  1.00  0.00     0.105 C 
BRANCH  16  17
ATOM     17  N   UNL     1      -2.266 -47.529  25.730  1.00  0.00    -0.308 NA
ATOM     18  C   UNL     1      -2.085 -46.500  24.712  1.00  0.00     0.105 C 
ATOM     19  C   UNL     1      -3.092 -47.030  26.827  1.00  0.00     0.105 C 
ENDBRANCH  16  17
ENDBRANCH  15  16
ENDBRANCH  13  15
ENDBRANCH   6  13
BRANCH   3  20
ATOM     20  N   UNL     1       1.430 -52.183  19.649  1.00  0.00    -0.321 N 
ATOM     21  H   UNL     1       2.163 -52.782  20.005  1.00  0.00     0.170 HD
BRANCH  20  22
ATOM     22  C   UNL     1       1.580 -51.993  18.283  1.00  0.00     0.227 A 
ATOM     23  N   UNL     1       2.617 -52.508  17.611  1.00  0.00    -0.221 NA
ATOM     24  N   UNL     1       0.616 -51.269  17.696  1.00  0.00    -0.213 NA
ATOM     25  C   UNL     1       2.687 -52.273  16.291  1.00  0.00     0.117 A 
ATOM     26  C   UNL     1       0.727 -51.040  16.370  1.00  0.00     0.078 A 
ATOM     27  C   UNL     1       1.758 -51.535  15.607  1.00  0.00     0.049 A 
BRANCH  26  28
ATOM     28  C   UNL     1      -0.336 -50.245  15.768  1.00  0.00     0.026 A 
ATOM     29  C   UNL     1      -0.239 -49.730  14.489  1.00  0.00     0.096 A 
ATOM     30  C   UNL     1      -1.610 -49.838  16.287  1.00  0.00     0.009 A 
ATOM     31  N   UNL     1      -1.375 -49.017  14.224  1.00  0.00    -0.350 N 
ATOM     32  C   UNL     1      -2.305 -50.068  17.495  1.00  0.00     0.011 A 
ATOM     33  C   UNL     1      -2.230 -49.058  15.304  1.00  0.00     0.048 A 
ATOM     34  C   UNL     1      -3.570 -49.503  17.691  1.00  0.00     0.001 A 
ATOM     35  C   UNL     1      -3.499 -48.486  15.492  1.00  0.00     0.027 A 
ATOM     36  C   UNL     1      -4.156 -48.719  16.703  1.00  0.00     0.002 A 
ATOM     37  C   UNL     1      -1.640 -48.327  12.981  1.00  0.00     0.149 C 
ENDBRANCH  26  28
ENDBRANCH  20  22
ENDBRANCH   3  20
BRANCH   4  38
ATOM     38  O   UNL     1       1.363 -53.536  21.927  1.00  0.00    -0.494 OA
ATOM     39  C   UNL     1       1.432 -54.239  23.159  1.00  0.00     0.278 C 
ENDBRANCH   4  38
TORSDOF 10
ENDMDL
MODEL 5
REMARK minimizedAffinity -6.97552872
REMARK CNNscore 0.55143404
REMARK CNNaffinity 7.20646238
REMARK SMILES C=CC(=O)Nc1cc(Nc2nccc(-c3cn(C)c4ccccc34)n2)c(OC)cc1N(C)CCN(C)C
REMARK SMILES IDX 6 1 7 2 8 3 26 4 29 5 30 6 5 7 3 8 4 9 2 11 1 12 31 13 32 14
REMARK SMILES IDX 33 15 34 16 35 17 36 18 37 19 9 20 10 22 11 23 25 24 12 25
REMARK SMILES IDX 14 26 13 27 15 28 16 29 24 30 17 31 23 32 19 33 22 34 20 35
REMARK SMILES IDX 21 36 18 37 27 38 28 39
REMARK H PARENT 5 10 9 21
ROOT
ATOM      1  C   UNL     1       2.299 -51.381  15.051  1.00  0.00     0.067 A 
ATOM      2  C   UNL     1       1.950 -51.510  16.400  1.00  0.00     0.058 A 
ATOM      3  C   UNL     1       0.858 -50.811  16.936  1.00  0.00     0.086 A 
ATOM      4  C   UNL     1       0.112 -49.964  16.083  1.00  0.00     0.144 A 
ATOM      5  C   UNL     1       0.458 -49.830  14.736  1.00  0.00     0.076 A 
ATOM      6  C   UNL     1       1.555 -50.528  14.205  1.00  0.00     0.064 A 
ENDROOT
BRANCH   1   7
ATOM      7  N   UNL     1       3.389 -52.053  14.455  1.00  0.00    -0.321 N 
ATOM      8  C   UNL     1       4.671 -52.184  14.925  1.00  0.00     0.247 C 
ATOM      9  O   UNL     1       5.114 -51.835  16.011  1.00  0.00    -0.270 OA
ATOM     10  H   UNL     1       3.127 -52.531  13.598  1.00  0.00     0.170 HD
BRANCH   8  11
ATOM     11  C   UNL     1       5.581 -52.911  13.999  1.00  0.00     0.064 C 
ATOM     12  C   UNL     1       5.305 -53.155  12.712  1.00  0.00     0.014 C 
ENDBRANCH   8  11
ENDBRANCH   1   7
BRANCH   6  13
ATOM     13  N   UNL     1       1.919 -50.431  12.821  1.00  0.00    -0.372 N 
ATOM     14  C   UNL     1       3.180 -49.688  12.687  1.00  0.00     0.143 C 
BRANCH  13  15
ATOM     15  C   UNL     1       1.906 -51.752  12.140  1.00  0.00     0.131 C 
BRANCH  15  16
ATOM     16  C   UNL     1       1.863 -51.591  10.598  1.00  0.00     0.105 C 
BRANCH  16  17
ATOM     17  N   UNL     1       0.900 -52.411   9.831  1.00  0.00    -0.308 NA
ATOM     18  C   UNL     1      -0.061 -53.112  10.676  1.00  0.00     0.105 C 
ATOM     19  C   UNL     1       0.213 -51.635   8.802  1.00  0.00     0.105 C 
ENDBRANCH  16  17
ENDBRANCH  15  16
ENDBRANCH  13  15
ENDBRANCH   6  13
BRANCH   3  20
ATOM     20  N   UNL     1       0.469 -50.890  18.285  1.00  0.00    -0.321 N 
ATOM     21  H   UNL     1      -0.223 -50.205  18.561  1.00  0.00     0.170 HD
BRANCH  20  22
ATOM     22  C   UNL     1       0.759 -51.738  19.343  1.00  0.00     0.227 A 
ATOM     23  N   UNL     1       1.597 -52.773  19.206  1.00  0.00    -0.221 NA
ATOM     24  N   UNL     1       0.146 -51.441  20.498  1.00  0.00    -0.213 NA
ATOM     25  C   UNL     1       1.819 -53.546  20.281  1.00  0.00     0.117 A 
ATOM     26  C   UNL     1       0.381 -52.249  21.555  1.00  0.00     0.078 A 
ATOM     27  C   UNL     1       1.231 -53.329  21.499  1.00  0.00     0.049 A 
BRANCH  26  28
ATOM     28  C   UNL     1      -0.306 -51.900  22.791  1.00  0.00     0.026 A 
ATOM     29  C   UNL     1      -1.677 -51.732  22.853  1.00  0.00     0.096 A 
ATOM     30  C   UNL     1       0.202 -51.668  24.112  1.00  0.00     0.009 A 
ATOM     31  N   UNL     1      -2.013 -51.388  24.132  1.00  0.00    -0.350 N 
ATOM     32  C   UNL     1       1.485 -51.721  24.702  1.00  0.00     0.011 A 
ATOM     33  C   UNL     1      -0.887 -51.335  24.926  1.00  0.00     0.048 A 
ATOM     34  C   UNL     1       1.643 -51.424  26.061  1.00  0.00     0.001 A 
ATOM     35  C   UNL     1      -0.739 -51.033  26.290  1.00  0.00     0.027 A 
ATOM     36  C   UNL     1       0.544 -51.080  26.841  1.00  0.00     0.002 A 
ATOM     37  C   UNL     1      -3.361 -51.128  24.585  1.00  0.00     0.149 C 
ENDBRANCH  26  28
ENDBRANCH  20  22
ENDBRANCH   3  20
BRANCH   4  38
ATOM     38  O   UNL     1      -0.945 -49.317  16.687  1.00  0.00    -0.494 OA
ATOM     39  C   UNL     1      -1.019 -47.905  16.543  1.00  0.00     0.278 C 
ENDBRANCH   4  38
TORSDOF 10
ENDMDL
MODEL 6
REMARK minimizedAffinity -7.00486803
REMARK CNNscore 0.401771247
REMARK CNNaffinity 6.96990013
REMARK SMILES C=CC(=O)Nc1cc(Nc2nccc(-c3cn(C)c4ccccc34)n2)c(OC)cc1N(C)CCN(C)C
REMARK SMILES IDX 6 1 7 2 8 3 26 4 29 5 30 6 5 7 3 8 4 9 2 11 1 12 31 13 32 14
REMARK SMILES IDX 33 15 34 16 35 17 36 18 37 19 9 20 10 22 11 23 25 24 12 25
REMARK SMILES IDX 14 26 13 27 15 28 16 29 24 30 17 31 23 32 19 33 22 34 20 35
REMARK SMILES IDX 21 36 18 37 27 38 28 39
REMARK H PARENT 5 10 9 21
ROOT
ATOM      1  C   UNL     1       2.098 -51.522  15.750  1.00  0.00     0.067 A 
ATOM      2  C   UNL     1       1.787 -51.736  17.098  1.00  0.00     0.058 A 
ATOM      3  C   UNL     1       0.763 -51.014  17.728  1.00  0.00     0.086 A 
ATOM      4  C   UNL     1       0.045 -50.057  16.974  1.00  0.00     0.144 A 
ATOM      5  C   UNL     1       0.353 -49.838  15.628  1.00  0.00     0.076 A 
ATOM      6  C   UNL     1       1.384 -50.558  15.002  1.00  0.00     0.064 A 
ENDROOT
BRANCH   1   7
ATOM      7  N   UNL     1       3.120 -52.211  15.061  1.00  0.00    -0.321 N 
ATOM      8  C   UNL     1       4.472 -52.181  15.288  1.00  0.00     0.247 C 
ATOM      9  O   UNL     1       5.070 -51.630  16.204  1.00  0.00    -0.270 OA
ATOM     10  H   UNL     1       2.754 -52.840  14.352  1.00  0.00     0.170 HD
BRANCH   8  11
ATOM     11  C   UNL     1       5.265 -52.989  14.323  1.00  0.00     0.064 C 
ATOM     12  C   UNL     1       5.202 -52.846  12.994  1.00  0.00     0.014 C 
ENDBRANCH   8  11
ENDBRANCH   1   7
BRANCH   6  13
ATOM     13  N   UNL     1       1.705 -50.374  13.617  1.00  0.00    -0.372 N 
ATOM     14  C   UNL     1       0.506 -50.586  12.794  1.00  0.00     0.143 C 
BRANCH  13  15
ATOM     15  C   UNL     1       2.406 -49.088  13.365  1.00  0.00     0.131 C 
BRANCH  15  16
ATOM     16  C   UNL     1       3.009 -49.043  11.937  1.00  0.00     0.105 C 
BRANCH  16  17
ATOM     17  N   UNL     1       4.332 -48.410  11.752  1.00  0.00    -0.308 NA
ATOM     18  C   UNL     1       5.246 -48.647  12.864  1.00  0.00     0.105 C 
ATOM     19  C   UNL     1       4.953 -48.790  10.485  1.00  0.00     0.105 C 
ENDBRANCH  16  17
ENDBRANCH  15  16
ENDBRANCH  13  15
ENDBRANCH   6  13
BRANCH   3  20
ATOM     20  N   UNL     1       0.415 -51.177  19.081  1.00  0.00    -0.321 N 
ATOM     21  H   UNL     1      -0.291 -50.530  19.411  1.00  0.00     0.170 HD
BRANCH  20  22
ATOM     22  C   UNL     1       0.762 -52.068  20.085  1.00  0.00     0.227 A 
ATOM     23  N   UNL     1       1.513 -53.148  19.838  1.00  0.00    -0.221 NA
ATOM     24  N   UNL     1       0.298 -51.765  21.306  1.00  0.00    -0.213 NA
ATOM     25  C   UNL     1       1.800 -53.961  20.867  1.00  0.00     0.117 A 
ATOM     26  C   UNL     1       0.593 -52.613  22.314  1.00  0.00     0.078 A 
ATOM     27  C   UNL     1       1.361 -53.741  22.145  1.00  0.00     0.049 A 
BRANCH  26  28
ATOM     28  C   UNL     1       0.067 -52.254  23.625  1.00  0.00     0.026 A 
ATOM     29  C   UNL     1       0.885 -52.059  24.722  1.00  0.00     0.096 A 
ATOM     30  C   UNL     1      -1.281 -52.035  24.065  1.00  0.00     0.009 A 
ATOM     31  N   UNL     1       0.099 -51.759  25.799  1.00  0.00    -0.350 N 
ATOM     32  C   UNL     1      -2.543 -52.042  23.430  1.00  0.00     0.011 A 
ATOM     33  C   UNL     1      -1.230 -51.742  25.433  1.00  0.00     0.048 A 
ATOM     34  C   UNL     1      -3.700 -51.784  24.172  1.00  0.00     0.001 A 
ATOM     35  C   UNL     1      -2.386 -51.482  26.187  1.00  0.00     0.027 A 
ATOM     36  C   UNL     1      -3.621 -51.512  25.534  1.00  0.00     0.002 A 
ATOM     37  C   UNL     1       0.597 -51.490  27.130  1.00  0.00     0.149 C 
ENDBRANCH  26  28
ENDBRANCH  20  22
ENDBRANCH   3  20
BRANCH   4  38
ATOM     38  O   UNL     1      -0.946 -49.395  17.667  1.00  0.00    -0.494 OA
ATOM     39  C   UNL     1      -2.292 -49.756  17.391  1.00  0.00     0.278 C 
ENDBRANCH   4  38
TORSDOF 10
ENDMDL
MODEL 7
REMARK minimizedAffinity -7.45060968
REMARK CNNscore 0.381853491
REMARK CNNaffinity 7.00921822
REMARK SMILES C=CC(=O)Nc1cc(Nc2nccc(-c3cn(C)c4ccccc34)n2)c(OC)cc1N(C)CCN(C)C
REMARK SMILES IDX 6 1 7 2 8 3 26 4 29 5 30 6 5 7 3 8 4 9 2 11 1 12 31 13 32 14
REMARK SMILES IDX 33 15 34 16 35 17 36 18 37 19 9 20 10 22 11 23 25 24 12 25
REMARK SMILES IDX 14 26 13 27 15 28 16 29 24 30 17 31 23 32 19 33 22 34 20 35
REMARK SMILES IDX 21 36 18 37 27 38 28 39
REMARK H PARENT 5 10 9 21
ROOT
ATOM      1  C   UNL     1       1.519 -51.248  15.967  1.00  0.00     0.067 A 
ATOM      2  C   UNL     1       1.561 -51.392  17.358  1.00  0.00     0.058 A 
ATOM      3  C   UNL     1       0.539 -50.878  18.170  1.00  0.00     0.086 A 
ATOM      4  C   UNL     1      -0.542 -50.204  17.555  1.00  0.00     0.144 A 
ATOM      5  C   UNL     1      -0.587 -50.055  16.166  1.00  0.00     0.076 A 
ATOM      6  C   UNL     1       0.441 -50.566  15.357  1.00  0.00     0.064 A 
ENDROOT
BRANCH   1   7
ATOM      7  N   UNL     1       2.517 -51.737  15.096  1.00  0.00    -0.321 N 
ATOM      8  C   UNL     1       3.835 -52.002  15.373  1.00  0.00     0.247 C 
ATOM      9  O   UNL     1       4.397 -51.968  16.459  1.00  0.00    -0.270 OA
ATOM     10  H   UNL     1       2.154 -51.959  14.174  1.00  0.00     0.170 HD
BRANCH   8  11
ATOM     11  C   UNL     1       4.620 -52.452  14.192  1.00  0.00     0.064 C 
ATOM     12  C   UNL     1       5.933 -52.708  14.217  1.00  0.00     0.014 C 
ENDBRANCH   8  11
ENDBRANCH   1   7
BRANCH   6  13
ATOM     13  N   UNL     1       0.409 -50.452  13.928  1.00  0.00    -0.372 N 
ATOM     14  C   UNL     1       1.537 -49.631  13.467  1.00  0.00     0.143 C 
BRANCH  13  15
ATOM     15  C   UNL     1       0.296 -51.774  13.258  1.00  0.00     0.131 C 
BRANCH  15  16
ATOM     16  C   UNL     1      -0.353 -51.643  11.855  1.00  0.00     0.105 C 
BRANCH  16  17
ATOM     17  N   UNL     1      -1.828 -51.667  11.758  1.00  0.00    -0.308 NA
ATOM     18  C   UNL     1      -2.425 -50.337  11.712  1.00  0.00     0.105 C 
ATOM     19  C   UNL     1      -2.294 -52.480  10.636  1.00  0.00     0.105 C 
ENDBRANCH  16  17
ENDBRANCH  15  16
ENDBRANCH  13  15
ENDBRANCH   6  13
BRANCH   3  20
ATOM     20  N   UNL     1       0.534 -50.980  19.573  1.00  0.00    -0.321 N 
ATOM     21  H   UNL     1       0.213 -50.149  20.051  1.00  0.00     0.170 HD
BRANCH  20  22
ATOM     22  C   UNL     1       0.807 -51.989  20.486  1.00  0.00     0.227 A 
ATOM     23  N   UNL     1       1.510 -53.075  20.144  1.00  0.00    -0.221 NA
ATOM     24  N   UNL     1       0.324 -51.789  21.720  1.00  0.00    -0.213 NA
ATOM     25  C   UNL     1       1.725 -54.004  21.089  1.00  0.00     0.117 A 
ATOM     26  C   UNL     1       0.547 -52.751  22.641  1.00  0.00     0.078 A 
ATOM     27  C   UNL     1       1.261 -53.895  22.373  1.00  0.00     0.049 A 
BRANCH  26  28
ATOM     28  C   UNL     1       0.002 -52.502  23.969  1.00  0.00     0.026 A 
ATOM     29  C   UNL     1       0.786 -52.531  25.108  1.00  0.00     0.096 A 
ATOM     30  C   UNL     1      -1.335 -52.198  24.391  1.00  0.00     0.009 A 
ATOM     31  N   UNL     1      -0.013 -52.285  26.188  1.00  0.00    -0.350 N 
ATOM     32  C   UNL     1      -2.562 -51.994  23.720  1.00  0.00     0.011 A 
ATOM     33  C   UNL     1      -1.316 -52.082  25.786  1.00  0.00     0.048 A 
ATOM     34  C   UNL     1      -3.720 -51.708  24.453  1.00  0.00     0.001 A 
ATOM     35  C   UNL     1      -2.473 -51.797  26.530  1.00  0.00     0.027 A 
ATOM     36  C   UNL     1      -3.674 -51.616  25.840  1.00  0.00     0.002 A 
ATOM     37  C   UNL     1       0.450 -52.235  27.558  1.00  0.00     0.149 C 
ENDBRANCH  26  28
ENDBRANCH  20  22
ENDBRANCH   3  20
BRANCH   4  38
ATOM     38  O   UNL     1      -1.503 -49.733  18.424  1.00  0.00    -0.494 OA
ATOM     39  C   UNL     1      -2.821 -50.243  18.281  1.00  0.00     0.278 C 
ENDBRANCH   4  38
TORSDOF 10
ENDMDL
MODEL 8
REMARK minimizedAffinity -7.41508198
REMARK CNNscore 0.195385993
REMARK CNNaffinity 6.93144369
REMARK SMILES C=CC(=O)Nc1cc(Nc2nccc(-c3cn(C)c4ccccc34)n2)c(OC)cc1N(C)CCN(C)C
REMARK SMILES IDX 6 1 7 2 8 3 26 4 29 5 30 6 5 7 3 8 4 9 2 11 1 12 31 13 32 14
REMARK SMILES IDX 33 15 34 16 35 17 36 18 37 19 9 20 10 22 11 23 25 24 12 25
REMARK SMILES IDX 14 26 13 27 15 28 16 29 24 30 17 31 23 32 19 33 22 34 20 35
REMARK SMILES IDX 21 36 18 37 27 38 28 39
REMARK H PARENT 5 10 9 21
ROOT
ATOM      1  C   UNL     1      -0.817 -50.371  24.535  1.00  0.00     0.067 A 
ATOM      2  C   UNL     1      -0.483 -50.946  23.303  1.00  0.00     0.058 A 
ATOM      3  C   UNL     1      -1.309 -50.788  22.182  1.00  0.00     0.086 A 
ATOM      4  C   UNL     1      -2.499 -50.034  22.317  1.00  0.00     0.144 A 
ATOM      5  C   UNL     1      -2.839 -49.460  23.545  1.00  0.00     0.076 A 
ATOM      6  C   UNL     1      -2.011 -49.625  24.668  1.00  0.00     0.064 A 
ENDROOT
BRANCH   1   7
ATOM      7  N   UNL     1      -0.031 -50.498  25.700  1.00  0.00    -0.321 N 
ATOM      8  C   UNL     1       0.809 -51.523  26.055  1.00  0.00     0.247 C 
ATOM      9  O   UNL     1       1.134 -52.496  25.386  1.00  0.00    -0.270 OA
ATOM     10  H   UNL     1      -0.084 -49.677  26.296  1.00  0.00     0.170 HD
BRANCH   8  11
ATOM     11  C   UNL     1       1.436 -51.354  27.393  1.00  0.00     0.064 C 
ATOM     12  C   UNL     1       1.291 -52.218  28.405  1.00  0.00     0.014 C 
ENDBRANCH   8  11
ENDBRANCH   1   7
BRANCH   6  13
ATOM     13  N   UNL     1      -2.320 -49.027  25.933  1.00  0.00    -0.372 N 
ATOM     14  C   UNL     1      -2.224 -47.564  25.830  1.00  0.00     0.143 C 
BRANCH  13  15
ATOM     15  C   UNL     1      -3.605 -49.521  26.494  1.00  0.00     0.131 C 
BRANCH  15  16
ATOM     16  C   UNL     1      -3.748 -49.149  27.992  1.00  0.00     0.105 C 
BRANCH  16  17
ATOM     17  N   UNL     1      -4.196 -47.783  28.339  1.00  0.00    -0.308 NA
ATOM     18  C   UNL     1      -5.641 -47.675  28.507  1.00  0.00     0.105 C 
ATOM     19  C   UNL     1      -3.499 -47.255  29.510  1.00  0.00     0.105 C 
ENDBRANCH  16  17
ENDBRANCH  15  16
ENDBRANCH  13  15
ENDBRANCH   6  13
BRANCH   3  20
ATOM     20  N   UNL     1      -1.031 -51.352  20.924  1.00  0.00    -0.321 N 
ATOM     21  H   UNL     1      -1.810 -51.336  20.278  1.00  0.00     0.170 HD
BRANCH  20  22
ATOM     22  C   UNL     1       0.095 -51.882  20.311  1.00  0.00     0.227 A 
ATOM     23  N   UNL     1       0.927 -52.705  20.961  1.00  0.00    -0.221 NA
ATOM     24  N   UNL     1       0.278 -51.515  19.035  1.00  0.00    -0.213 NA
ATOM     25  C   UNL     1       1.995 -53.170  20.294  1.00  0.00     0.117 A 
ATOM     26  C   UNL     1       1.371 -51.990  18.400  1.00  0.00     0.078 A 
ATOM     27  C   UNL     1       2.273 -52.842  18.994  1.00  0.00     0.049 A 
BRANCH  26  28
ATOM     28  C   UNL     1       1.541 -51.565  17.017  1.00  0.00     0.026 A 
ATOM     29  C   UNL     1       0.576 -50.839  16.343  1.00  0.00     0.096 A 
ATOM     30  C   UNL     1       2.628 -51.765  16.102  1.00  0.00     0.009 A 
ATOM     31  N   UNL     1       1.016 -50.616  15.068  1.00  0.00    -0.350 N 
ATOM     32  C   UNL     1       3.896 -52.382  16.192  1.00  0.00     0.011 A 
ATOM     33  C   UNL     1       2.264 -51.174  14.887  1.00  0.00     0.048 A 
ATOM     34  C   UNL     1       4.741 -52.408  15.077  1.00  0.00     0.001 A 
ATOM     35  C   UNL     1       3.104 -51.196  13.761  1.00  0.00     0.027 A 
ATOM     36  C   UNL     1       4.346 -51.826  13.877  1.00  0.00     0.002 A 
ATOM     37  C   UNL     1       0.277 -49.889  14.060  1.00  0.00     0.149 C 
ENDBRANCH  26  28
ENDBRANCH  20  22
ENDBRANCH   3  20
BRANCH   4  38
ATOM     38  O   UNL     1      -3.252 -49.925  21.167  1.00  0.00    -0.494 OA
ATOM     39  C   UNL     1      -3.481 -48.619  20.656  1.00  0.00     0.278 C 
ENDBRANCH   4  38
TORSDOF 10
ENDMDL
MODEL 9
REMARK minimizedAffinity -7.22610092
REMARK CNNscore 0.171550214
REMARK CNNaffinity 6.80827332
REMARK SMILES C=CC(=O)Nc1cc(Nc2nccc(-c3cn(C)c4ccccc34)n2)c(OC)cc1N(C)CCN(C)C
REMARK SMILES IDX 6 1 7 2 8 3 26 4 29 5 30 6 5 7 3 8 4 9 2 11 1 12 31 13 32 14
REMARK SMILES IDX 33 15 34 16 35 17 36 18 37 19 9 20 10 22 11 23 25 24 12 25
REMARK SMILES IDX 14 26 13 27 15 28 16 29 24 30 17 31 23 32 19 33 22 34 20 35
REMARK SMILES IDX 21 36 18 37 27 38 28 39
REMARK H PARENT 5 10 9 21
ROOT
ATOM      1  C   UNL     1      -0.739 -49.881  22.505  1.00  0.00     0.067 A 
ATOM      2  C   UNL     1      -0.292 -49.935  21.180  1.00  0.00     0.058 A 
ATOM      3  C   UNL     1       0.338 -51.081  20.674  1.00  0.00     0.086 A 
ATOM      4  C   UNL     1       0.520 -52.190  21.533  1.00  0.00     0.144 A 
ATOM      5  C   UNL     1       0.078 -52.141  22.858  1.00  0.00     0.076 A 
ATOM      6  C   UNL     1      -0.548 -50.989  23.362  1.00  0.00     0.064 A 
ENDROOT
BRANCH   1   7
ATOM      7  N   UNL     1      -1.375 -48.756  23.074  1.00  0.00    -0.321 N 
ATOM      8  C   UNL     1      -2.652 -48.303  22.865  1.00  0.00     0.247 C 
ATOM      9  O   UNL     1      -3.545 -48.837  22.220  1.00  0.00    -0.270 OA
ATOM     10  H   UNL     1      -0.792 -48.287  23.761  1.00  0.00     0.170 HD
BRANCH   8  11
ATOM     11  C   UNL     1      -2.971 -47.042  23.588  1.00  0.00     0.064 C 
ATOM     12  C   UNL     1      -2.049 -46.205  24.079  1.00  0.00     0.014 C 
ENDBRANCH   8  11
ENDBRANCH   1   7
BRANCH   6  13
ATOM     13  N   UNL     1      -1.036 -50.918  24.709  1.00  0.00    -0.372 N 
ATOM     14  C   UNL     1      -1.888 -52.081  24.992  1.00  0.00     0.143 C 
BRANCH  13  15
ATOM     15  C   UNL     1       0.055 -50.699  25.694  1.00  0.00     0.131 C 
BRANCH  15  16
ATOM     16  C   UNL     1       1.074 -51.869  25.678  1.00  0.00     0.105 C 
BRANCH  16  17
ATOM     17  N   UNL     1       1.659 -52.310  26.962  1.00  0.00    -0.308 NA
ATOM     18  C   UNL     1       2.900 -51.621  27.297  1.00  0.00     0.105 C 
ATOM     19  C   UNL     1       0.704 -52.217  28.065  1.00  0.00     0.105 C 
ENDBRANCH  16  17
ENDBRANCH  15  16
ENDBRANCH  13  15
ENDBRANCH   6  13
BRANCH   3  20
ATOM     20  N   UNL     1       0.819 -51.188  19.356  1.00  0.00    -0.321 N 
ATOM     21  H   UNL     1       1.684 -51.706  19.268  1.00  0.00     0.170 HD
BRANCH  20  22
ATOM     22  C   UNL     1       0.356 -50.803  18.107  1.00  0.00     0.227 A 
ATOM     23  N   UNL     1      -0.886 -50.338  17.930  1.00  0.00    -0.221 NA
ATOM     24  N   UNL     1       1.240 -50.926  17.106  1.00  0.00    -0.213 NA
ATOM     25  C   UNL     1      -1.254 -49.992  16.686  1.00  0.00     0.117 A 
ATOM     26  C   UNL     1       0.831 -50.582  15.866  1.00  0.00     0.078 A 
ATOM     27  C   UNL     1      -0.426 -50.094  15.600  1.00  0.00     0.049 A 
BRANCH  26  28
ATOM     28  C   UNL     1       1.816 -50.735  14.803  1.00  0.00     0.026 A 
ATOM     29  C   UNL     1       1.656 -50.156  13.558  1.00  0.00     0.096 A 
ATOM     30  C   UNL     1       3.063 -51.444  14.777  1.00  0.00     0.009 A 
ATOM     31  N   UNL     1       2.726 -50.500  12.781  1.00  0.00    -0.350 N 
ATOM     32  C   UNL     1       3.797 -52.191  15.726  1.00  0.00     0.011 A 
ATOM     33  C   UNL     1       3.602 -51.291  13.494  1.00  0.00     0.048 A 
ATOM     34  C   UNL     1       5.017 -52.773  15.364  1.00  0.00     0.001 A 
ATOM     35  C   UNL     1       4.825 -51.873  13.121  1.00  0.00     0.027 A 
ATOM     36  C   UNL     1       5.520 -52.618  14.077  1.00  0.00     0.002 A 
ATOM     37  C   UNL     1       2.914 -50.082  11.410  1.00  0.00     0.149 C 
ENDBRANCH  26  28
ENDBRANCH  20  22
ENDBRANCH   3  20
BRANCH   4  38
ATOM     38  O   UNL     1       1.145 -53.276  20.957  1.00  0.00    -0.494 OA
ATOM     39  C   UNL     1       1.633 -54.288  21.826  1.00  0.00     0.278 C 
ENDBRANCH   4  38
TORSDOF 10
ENDMDL
