MODEL 1
REMARK minimizedAffinity -6.87983274
REMARK CNNscore 0.90924269
REMARK CNNaffinity 6.49367666
REMARK SMILES C#Cc1cccc(Nc2ncnc3cc(OCCOC)c(OCCOC)cc23)c1
REMARK SMILES IDX 9 1 10 2 11 3 12 4 13 5 14 6 15 7 21 8 27 9 28 10 8 11 7 13
REMARK SMILES IDX 2 14 3 15 4 16 29 17 5 18 6 19 1 20 22 21 23 22 24 23 25 24
REMARK SMILES IDX 26 25 16 26 17 27 18 28 19 29 20 30
REMARK H PARENT 8 12
ROOT
ATOM      1  C   UNL     1       0.888 -51.896  22.019  1.00  0.00     0.141 A 
ATOM      2  N   UNL     1       1.256 -53.118  22.444  1.00  0.00    -0.219 NA
ATOM      3  C   UNL     1       1.569 -54.016  21.508  1.00  0.00     0.224 A 
ATOM      4  N   UNL     1       1.550 -53.816  20.187  1.00  0.00    -0.236 NA
ATOM      5  C   UNL     1       1.202 -52.596  19.769  1.00  0.00     0.080 A 
ATOM      6  C   UNL     1       1.180 -52.350  18.405  1.00  0.00     0.079 A 
ATOM      7  C   UNL     1       0.847 -51.092  17.893  1.00  0.00     0.163 A 
ATOM      8  C   UNL     1       0.491 -50.049  18.751  1.00  0.00     0.162 A 
ATOM      9  C   UNL     1       0.513 -50.283  20.126  1.00  0.00     0.064 A 
ATOM     10  C   UNL     1       0.857 -51.561  20.649  1.00  0.00     0.047 A 
ENDROOT
BRANCH   1  11
ATOM     11  N   UNL     1       0.490 -50.916  22.972  1.00  0.00    -0.340 N 
ATOM     12  H   UNL     1      -0.313 -50.418  22.602  1.00  0.00     0.168 HD
BRANCH  11  13
ATOM     13  C   UNL     1       0.402 -51.044  24.379  1.00  0.00     0.041 A 
ATOM     14  C   UNL     1      -2.123 -51.389  27.120  1.00  0.00    -0.070 C 
ATOM     15  C   UNL     1      -0.863 -51.323  26.444  1.00  0.00     0.026 A 
ATOM     16  C   UNL     1       0.322 -51.470  27.166  1.00  0.00     0.017 A 
ATOM     17  C   UNL     1      -0.821 -51.123  25.058  1.00  0.00     0.043 A 
ATOM     18  C   UNL     1       1.546 -51.433  26.502  1.00  0.00     0.003 A 
ATOM     19  C   UNL     1       1.582 -51.235  25.119  1.00  0.00     0.026 A 
ATOM     20  C   UNL     1      -3.179 -51.452  27.688  1.00  0.00     0.010 C 
ENDBRANCH  11  13
ENDBRANCH   1  11
BRANCH   8  21
ATOM     21  O   UNL     1       0.171 -48.856  18.159  1.00  0.00    -0.487 OA
BRANCH  21  22
ATOM     22  C   UNL     1      -1.216 -48.530  18.030  1.00  0.00     0.258 C 
BRANCH  22  23
ATOM     23  C   UNL     1      -1.514 -47.308  18.900  1.00  0.00     0.201 C 
BRANCH  23  24
ATOM     24  O   UNL     1      -0.404 -47.060  19.769  1.00  0.00    -0.381 OA
ATOM     25  C   UNL     1      -0.823 -46.904  21.120  1.00  0.00     0.195 C 
ENDBRANCH  23  24
ENDBRANCH  22  23
ENDBRANCH  21  22
ENDBRANCH   8  21
BRANCH   7  26
ATOM     26  O   UNL     1       0.771 -50.887  16.539  1.00  0.00    -0.487 OA
BRANCH  26  27
ATOM     27  C   UNL     1       1.312 -51.971  15.771  1.00  0.00     0.258 C 
BRANCH  27  28
ATOM     28  C   UNL     1       2.729 -51.609  15.326  1.00  0.00     0.201 C 
BRANCH  28  29
ATOM     29  O   UNL     1       3.724 -52.404  15.976  1.00  0.00    -0.381 OA
ATOM     30  C   UNL     1       5.033 -52.195  15.458  1.00  0.00     0.195 C 
ENDBRANCH  28  29
ENDBRANCH  27  28
ENDBRANCH  26  27
ENDBRANCH   7  26
TORSDOF 10
ENDMDL
MODEL 2
REMARK minimizedAffinity -6.60010386
REMARK CNNscore 0.89827323
REMARK CNNaffinity 6.75394011
REMARK SMILES C#Cc1cccc(Nc2ncnc3cc(OCCOC)c(OCCOC)cc23)c1
REMARK SMILES IDX 9 1 10 2 11 3 12 4 13 5 14 6 15 7 21 8 27 9 28 10 8 11 7 13
REMARK SMILES IDX 2 14 3 15 4 16 29 17 5 18 6 19 1 20 22 21 23 22 24 23 25 24
REMARK SMILES IDX 26 25 16 26 17 27 18 28 19 29 20 30
REMARK H PARENT 8 12
ROOT
ATOM      1  C   UNL     1       0.177 -52.367  22.042  1.00  0.00     0.141 A 
ATOM      2  N   UNL     1       0.826 -53.459  22.481  1.00  0.00    -0.219 NA
ATOM      3  C   UNL     1       1.638 -54.070  21.615  1.00  0.00     0.224 A 
ATOM      4  N   UNL     1       1.866 -53.698  20.352  1.00  0.00    -0.236 NA
ATOM      5  C   UNL     1       1.234 -52.602  19.926  1.00  0.00     0.080 A 
ATOM      6  C   UNL     1       1.453 -52.182  18.623  1.00  0.00     0.079 A 
ATOM      7  C   UNL     1       0.843 -51.032  18.112  1.00  0.00     0.163 A 
ATOM      8  C   UNL     1      -0.039 -50.287  18.898  1.00  0.00     0.162 A 
ATOM      9  C   UNL     1      -0.265 -50.698  20.212  1.00  0.00     0.064 A 
ATOM     10  C   UNL     1       0.359 -51.865  20.736  1.00  0.00     0.047 A 
ENDROOT
BRANCH   1  11
ATOM     11  N   UNL     1      -0.745 -51.709  22.905  1.00  0.00    -0.340 N 
ATOM     12  H   UNL     1      -1.644 -51.661  22.437  1.00  0.00     0.168 HD
BRANCH  11  13
ATOM     13  C   UNL     1      -0.910 -51.871  24.302  1.00  0.00     0.041 A 
ATOM     14  C   UNL     1       1.049 -51.829  27.490  1.00  0.00    -0.070 C 
ATOM     15  C   UNL     1      -0.057 -51.893  26.586  1.00  0.00     0.026 A 
ATOM     16  C   UNL     1      -1.354 -52.036  27.082  1.00  0.00     0.017 A 
ATOM     17  C   UNL     1       0.159 -51.800  25.205  1.00  0.00     0.043 A 
ATOM     18  C   UNL     1      -2.432 -52.070  26.201  1.00  0.00     0.003 A 
ATOM     19  C   UNL     1      -2.211 -51.975  24.825  1.00  0.00     0.026 A 
ATOM     20  C   UNL     1       1.977 -51.768  28.251  1.00  0.00     0.010 C 
ENDBRANCH  11  13
ENDBRANCH   1  11
BRANCH   8  21
ATOM     21  O   UNL     1      -0.596 -49.183  18.310  1.00  0.00    -0.487 OA
BRANCH  21  22
ATOM     22  C   UNL     1      -1.662 -48.528  19.003  1.00  0.00     0.258 C 
BRANCH  22  23
ATOM     23  C   UNL     1      -1.278 -47.063  19.219  1.00  0.00     0.201 C 
BRANCH  23  24
ATOM     24  O   UNL     1      -0.348 -46.970  20.303  1.00  0.00    -0.381 OA
ATOM     25  C   UNL     1      -0.989 -46.572  21.509  1.00  0.00     0.195 C 
ENDBRANCH  23  24
ENDBRANCH  22  23
ENDBRANCH  21  22
ENDBRANCH   8  21
BRANCH   7  26
ATOM     26  O   UNL     1       1.025 -50.668  16.801  1.00  0.00    -0.487 OA
BRANCH  26  27
ATOM     27  C   UNL     1       1.847 -51.587  16.068  1.00  0.00     0.258 C 
BRANCH  27  28
ATOM     28  C   UNL     1       1.395 -51.605  14.608  1.00  0.00     0.201 C 
BRANCH  28  29
ATOM     29  O   UNL     1       0.244 -50.789  14.383  1.00  0.00    -0.381 OA
ATOM     30  C   UNL     1      -0.651 -51.337  13.422  1.00  0.00     0.195 C 
ENDBRANCH  28  29
ENDBRANCH  27  28
ENDBRANCH  26  27
ENDBRANCH   7  26
TORSDOF 10
ENDMDL
MODEL 3
REMARK minimizedAffinity -6.85624552
REMARK CNNscore 0.859245539
REMARK CNNaffinity 6.57490396
REMARK SMILES C#Cc1cccc(Nc2ncnc3cc(OCCOC)c(OCCOC)cc23)c1
REMARK SMILES IDX 9 1 10 2 11 3 12 4 13 5 14 6 15 7 21 8 27 9 28 10 8 11 7 13
REMARK SMILES IDX 2 14 3 15 4 16 29 17 5 18 6 19 1 20 22 21 23 22 24 23 25 24
REMARK SMILES IDX 26 25 16 26 17 27 18 28 19 29 20 30
REMARK H PARENT 8 12
ROOT
ATOM      1  C   UNL     1       0.690 -52.011  21.698  1.00  0.00     0.141 A 
ATOM      2  N   UNL     1       1.246 -53.155  22.134  1.00  0.00    -0.219 NA
ATOM      3  C   UNL     1       1.884 -53.902  21.230  1.00  0.00     0.224 A 
ATOM      4  N   UNL     1       2.021 -53.620  19.931  1.00  0.00    -0.236 NA
ATOM      5  C   UNL     1       1.483 -52.475  19.506  1.00  0.00     0.080 A 
ATOM      6  C   UNL     1       1.613 -52.146  18.165  1.00  0.00     0.079 A 
ATOM      7  C   UNL     1       1.095 -50.954  17.649  1.00  0.00     0.163 A 
ATOM      8  C   UNL     1       0.396 -50.069  18.474  1.00  0.00     0.162 A 
ATOM      9  C   UNL     1       0.262 -50.387  19.826  1.00  0.00     0.064 A 
ATOM     10  C   UNL     1       0.793 -51.597  20.353  1.00  0.00     0.047 A 
ENDROOT
BRANCH   1  11
ATOM     11  N   UNL     1      -0.051 -51.204  22.607  1.00  0.00    -0.340 N 
ATOM     12  H   UNL     1      -0.811 -50.765  22.099  1.00  0.00     0.168 HD
BRANCH  11  13
ATOM     13  C   UNL     1      -0.437 -51.506  23.936  1.00  0.00     0.041 A 
ATOM     14  C   UNL     1       0.972 -51.752  27.394  1.00  0.00    -0.070 C 
ATOM     15  C   UNL     1       0.031 -51.741  26.317  1.00  0.00     0.026 A 
ATOM     16  C   UNL     1      -1.325 -51.949  26.576  1.00  0.00     0.017 A 
ATOM     17  C   UNL     1       0.467 -51.510  25.006  1.00  0.00     0.043 A 
ATOM     18  C   UNL     1      -2.243 -51.911  25.529  1.00  0.00     0.003 A 
ATOM     19  C   UNL     1      -1.802 -51.678  24.224  1.00  0.00     0.026 A 
ATOM     20  C   UNL     1       1.761 -51.754  28.300  1.00  0.00     0.010 C 
ENDBRANCH  11  13
ENDBRANCH   1  11
BRANCH   8  21
ATOM     21  O   UNL     1      -0.083 -48.933  17.880  1.00  0.00    -0.487 OA
BRANCH  21  22
ATOM     22  C   UNL     1      -1.496 -48.707  17.920  1.00  0.00     0.258 C 
BRANCH  22  23
ATOM     23  C   UNL     1      -2.160 -49.564  16.842  1.00  0.00     0.201 C 
BRANCH  23  24
ATOM     24  O   UNL     1      -3.103 -50.450  17.453  1.00  0.00    -0.381 OA
ATOM     25  C   UNL     1      -3.361 -50.088  18.804  1.00  0.00     0.195 C 
ENDBRANCH  23  24
ENDBRANCH  22  23
ENDBRANCH  21  22
ENDBRANCH   8  21
BRANCH   7  26
ATOM     26  O   UNL     1       1.180 -50.677  16.309  1.00  0.00    -0.487 OA
BRANCH  26  27
ATOM     27  C   UNL     1       1.714 -51.764  15.540  1.00  0.00     0.258 C 
BRANCH  27  28
ATOM     28  C   UNL     1       2.593 -51.201  14.423  1.00  0.00     0.201 C 
BRANCH  28  29
ATOM     29  O   UNL     1       3.886 -51.808  14.389  1.00  0.00    -0.381 OA
ATOM     30  C   UNL     1       4.317 -52.276  15.662  1.00  0.00     0.195 C 
ENDBRANCH  28  29
ENDBRANCH  27  28
ENDBRANCH  26  27
ENDBRANCH   7  26
TORSDOF 10
ENDMDL
MODEL 4
REMARK minimizedAffinity -6.69377089
REMARK CNNscore 0.822014749
REMARK CNNaffinity 6.51891518
REMARK SMILES C#Cc1cccc(Nc2ncnc3cc(OCCOC)c(OCCOC)cc23)c1
REMARK SMILES IDX 9 1 10 2 11 3 12 4 13 5 14 6 15 7 21 8 27 9 28 10 8 11 7 13
REMARK SMILES IDX 2 14 3 15 4 16 29 17 5 18 6 19 1 20 22 21 23 22 24 23 25 24
REMARK SMILES IDX 26 25 16 26 17 27 18 28 19 29 20 30
REMARK H PARENT 8 12
ROOT
ATOM      1  C   UNL     1       0.866 -52.780  23.703  1.00  0.00     0.141 A 
ATOM      2  N   UNL     1       1.267 -54.041  23.942  1.00  0.00    -0.219 NA
ATOM      3  C   UNL     1       1.640 -54.769  22.888  1.00  0.00     0.224 A 
ATOM      4  N   UNL     1       1.653 -54.363  21.615  1.00  0.00    -0.236 NA
ATOM      5  C   UNL     1       1.272 -53.104  21.383  1.00  0.00     0.080 A 
ATOM      6  C   UNL     1       1.280 -52.646  20.074  1.00  0.00     0.079 A 
ATOM      7  C   UNL     1       0.914 -51.334  19.756  1.00  0.00     0.163 A 
ATOM      8  C   UNL     1       0.495 -50.452  20.754  1.00  0.00     0.162 A 
ATOM      9  C   UNL     1       0.486 -50.900  22.075  1.00  0.00     0.064 A 
ATOM     10  C   UNL     1       0.862 -52.233  22.402  1.00  0.00     0.047 A 
ENDROOT
BRANCH   1  11
ATOM     11  N   UNL     1       0.404 -51.977  24.784  1.00  0.00    -0.340 N 
ATOM     12  H   UNL     1       0.852 -51.069  24.722  1.00  0.00     0.168 HD
BRANCH  11  13
ATOM     13  C   UNL     1      -0.912 -51.859  25.291  1.00  0.00     0.041 A 
ATOM     14  C   UNL     1      -4.463 -51.585  24.140  1.00  0.00    -0.070 C 
ATOM     15  C   UNL     1      -3.329 -51.709  25.003  1.00  0.00     0.026 A 
ATOM     16  C   UNL     1      -3.512 -51.801  26.383  1.00  0.00     0.017 A 
ATOM     17  C   UNL     1      -2.037 -51.750  24.462  1.00  0.00     0.043 A 
ATOM     18  C   UNL     1      -2.408 -51.950  27.220  1.00  0.00     0.003 A 
ATOM     19  C   UNL     1      -1.122 -51.991  26.675  1.00  0.00     0.026 A 
ATOM     20  C   UNL     1      -5.416 -51.489  23.416  1.00  0.00     0.010 C 
ENDBRANCH  11  13
ENDBRANCH   1  11
BRANCH   8  21
ATOM     21  O   UNL     1       0.148 -49.192  20.346  1.00  0.00    -0.487 OA
BRANCH  21  22
ATOM     22  C   UNL     1      -0.603 -48.382  21.256  1.00  0.00     0.258 C 
BRANCH  22  23
ATOM     23  C   UNL     1      -0.425 -46.914  20.867  1.00  0.00     0.201 C 
BRANCH  23  24
ATOM     24  O   UNL     1      -1.235 -46.095  21.716  1.00  0.00    -0.381 OA
ATOM     25  C   UNL     1      -2.543 -45.924  21.183  1.00  0.00     0.195 C 
ENDBRANCH  23  24
ENDBRANCH  22  23
ENDBRANCH  21  22
ENDBRANCH   8  21
BRANCH   7  26
ATOM     26  O   UNL     1       0.870 -50.919  18.449  1.00  0.00    -0.487 OA
BRANCH  26  27
ATOM     27  C   UNL     1       1.029 -51.992  17.510  1.00  0.00     0.258 C 
BRANCH  27  28
ATOM     28  C   UNL     1       2.170 -51.650  16.551  1.00  0.00     0.201 C 
BRANCH  28  29
ATOM     29  O   UNL     1       3.133 -52.702  16.454  1.00  0.00    -0.381 OA
ATOM     30  C   UNL     1       4.291 -52.332  15.713  1.00  0.00     0.195 C 
ENDBRANCH  28  29
ENDBRANCH  27  28
ENDBRANCH  26  27
ENDBRANCH   7  26
TORSDOF 10
ENDMDL
MODEL 5
REMARK minimizedAffinity -5.85044003
REMARK CNNscore 0.810597837
REMARK CNNaffinity 6.70288658
REMARK SMILES C#Cc1cccc(Nc2ncnc3cc(OCCOC)c(OCCOC)cc23)c1
REMARK SMILES IDX 9 1 10 2 11 3 12 4 13 5 14 6 15 7 21 8 27 9 28 10 8 11 7 13
REMARK SMILES IDX 2 14 3 15 4 16 29 17 5 18 6 19 1 20 22 21 23 22 24 23 25 24
REMARK SMILES IDX 26 25 16 26 17 27 18 28 19 29 20 30
REMARK H PARENT 8 12
ROOT
ATOM      1  C   UNL     1       1.041 -53.033  21.690  1.00  0.00     0.141 A 
ATOM      2  N   UNL     1       2.074 -53.592  21.035  1.00  0.00    -0.219 NA
ATOM      3  C   UNL     1       2.235 -53.253  19.755  1.00  0.00     0.224 A 
ATOM      4  N   UNL     1       1.465 -52.409  19.061  1.00  0.00    -0.236 NA
ATOM      5  C   UNL     1       0.452 -51.842  19.719  1.00  0.00     0.080 A 
ATOM      6  C   UNL     1      -0.364 -50.954  19.033  1.00  0.00     0.079 A 
ATOM      7  C   UNL     1      -1.431 -50.305  19.661  1.00  0.00     0.163 A 
ATOM      8  C   UNL     1      -1.728 -50.561  21.002  1.00  0.00     0.162 A 
ATOM      9  C   UNL     1      -0.913 -51.449  21.704  1.00  0.00     0.064 A 
ATOM     10  C   UNL     1       0.177 -52.107  21.068  1.00  0.00     0.047 A 
ENDROOT
BRANCH   1  11
ATOM     11  N   UNL     1       0.790 -53.403  23.042  1.00  0.00    -0.340 N 
ATOM     12  H   UNL     1       1.397 -54.180  23.279  1.00  0.00     0.168 HD
BRANCH  11  13
ATOM     13  C   UNL     1       0.586 -52.559  24.160  1.00  0.00     0.041 A 
ATOM     14  C   UNL     1      -1.984 -51.723  26.749  1.00  0.00    -0.070 C 
ATOM     15  C   UNL     1      -0.747 -51.740  26.030  1.00  0.00     0.026 A 
ATOM     16  C   UNL     1       0.328 -50.973  26.479  1.00  0.00     0.017 A 
ATOM     17  C   UNL     1      -0.613 -52.536  24.885  1.00  0.00     0.043 A 
ATOM     18  C   UNL     1       1.540 -51.013  25.793  1.00  0.00     0.003 A 
ATOM     19  C   UNL     1       1.670 -51.809  24.652  1.00  0.00     0.026 A 
ATOM     20  C   UNL     1      -3.019 -51.713  27.357  1.00  0.00     0.010 C 
ENDBRANCH  11  13
ENDBRANCH   1  11
BRANCH   8  21
ATOM     21  O   UNL     1      -2.797 -49.887  21.528  1.00  0.00    -0.487 OA
BRANCH  21  22
ATOM     22  C   UNL     1      -3.666 -50.604  22.410  1.00  0.00     0.258 C 
BRANCH  22  23
ATOM     23  C   UNL     1      -3.520 -50.026  23.818  1.00  0.00     0.201 C 
BRANCH  23  24
ATOM     24  O   UNL     1      -4.763 -50.153  24.516  1.00  0.00    -0.381 OA
ATOM     25  C   UNL     1      -5.852 -49.673  23.737  1.00  0.00     0.195 C 
ENDBRANCH  23  24
ENDBRANCH  22  23
ENDBRANCH  21  22
ENDBRANCH   8  21
BRANCH   7  26
ATOM     26  O   UNL     1      -2.262 -49.479  18.948  1.00  0.00    -0.487 OA
BRANCH  26  27
ATOM     27  C   UNL     1      -1.592 -48.333  18.406  1.00  0.00     0.258 C 
BRANCH  27  28
ATOM     28  C   UNL     1      -0.741 -47.688  19.501  1.00  0.00     0.201 C 
BRANCH  28  29
ATOM     29  O   UNL     1      -1.191 -46.374  19.837  1.00  0.00    -0.381 OA
ATOM     30  C   UNL     1      -2.411 -46.371  20.571  1.00  0.00     0.195 C 
ENDBRANCH  28  29
ENDBRANCH  27  28
ENDBRANCH  26  27
ENDBRANCH   7  26
TORSDOF 10
ENDMDL
MODEL 6
REMARK minimizedAffinity -5.90596485
REMARK CNNscore 0.808203101
REMARK CNNaffinity 6.72119188
REMARK SMILES C#Cc1cccc(Nc2ncnc3cc(OCCOC)c(OCCOC)cc23)c1
REMARK SMILES IDX 9 1 10 2 11 3 12 4 13 5 14 6 15 7 21 8 27 9 28 10 8 11 7 13
REMARK SMILES IDX 2 14 3 15 4 16 29 17 5 18 6 19 1 20 22 21 23 22 24 23 25 24
REMARK SMILES IDX 26 25 16 26 17 27 18 28 19 29 20 30
REMARK H PARENT 8 12
ROOT
ATOM      1  C   UNL     1       1.088 -52.791  21.740  1.00  0.00     0.141 A 
ATOM      2  N   UNL     1       1.844 -53.582  20.957  1.00  0.00    -0.219 NA
ATOM      3  C   UNL     1       2.088 -53.151  19.718  1.00  0.00     0.224 A 
ATOM      4  N   UNL     1       1.653 -52.007  19.181  1.00  0.00    -0.236 NA
ATOM      5  C   UNL     1       0.918 -51.217  19.967  1.00  0.00     0.080 A 
ATOM      6  C   UNL     1       0.455 -50.018  19.446  1.00  0.00     0.079 A 
ATOM      7  C   UNL     1      -0.302 -49.129  20.215  1.00  0.00     0.163 A 
ATOM      8  C   UNL     1      -0.643 -49.443  21.533  1.00  0.00     0.162 A 
ATOM      9  C   UNL     1      -0.181 -50.645  22.070  1.00  0.00     0.064 A 
ATOM     10  C   UNL     1       0.594 -51.549  21.290  1.00  0.00     0.047 A 
ENDROOT
BRANCH   1  11
ATOM     11  N   UNL     1       0.749 -53.228  23.052  1.00  0.00    -0.340 N 
ATOM     12  H   UNL     1       1.272 -54.074  23.252  1.00  0.00     0.168 HD
BRANCH  11  13
ATOM     13  C   UNL     1       0.580 -52.449  24.221  1.00  0.00     0.041 A 
ATOM     14  C   UNL     1      -1.965 -51.650  26.846  1.00  0.00    -0.070 C 
ATOM     15  C   UNL     1      -0.725 -51.685  26.133  1.00  0.00     0.026 A 
ATOM     16  C   UNL     1       0.384 -51.003  26.636  1.00  0.00     0.017 A 
ATOM     17  C   UNL     1      -0.622 -52.411  24.940  1.00  0.00     0.043 A 
ATOM     18  C   UNL     1       1.598 -51.061  25.954  1.00  0.00     0.003 A 
ATOM     19  C   UNL     1       1.696 -51.789  24.766  1.00  0.00     0.026 A 
ATOM     20  C   UNL     1      -3.004 -51.627  27.449  1.00  0.00     0.010 C 
ENDBRANCH  11  13
ENDBRANCH   1  11
BRANCH   8  21
ATOM     21  O   UNL     1      -1.395 -48.516  22.204  1.00  0.00    -0.487 OA
BRANCH  21  22
ATOM     22  C   UNL     1      -2.574 -48.975  22.872  1.00  0.00     0.258 C 
BRANCH  22  23
ATOM     23  C   UNL     1      -3.686 -49.150  21.838  1.00  0.00     0.201 C 
BRANCH  23  24
ATOM     24  O   UNL     1      -4.905 -48.601  22.351  1.00  0.00    -0.381 OA
ATOM     25  C   UNL     1      -5.171 -47.316  21.801  1.00  0.00     0.195 C 
ENDBRANCH  23  24
ENDBRANCH  22  23
ENDBRANCH  21  22
ENDBRANCH   8  21
BRANCH   7  26
ATOM     26  O   UNL     1      -0.802 -47.977  19.662  1.00  0.00    -0.487 OA
BRANCH  26  27
ATOM     27  C   UNL     1      -1.887 -48.211  18.753  1.00  0.00     0.258 C 
BRANCH  27  28
ATOM     28  C   UNL     1      -1.848 -47.156  17.648  1.00  0.00     0.201 C 
BRANCH  28  29
ATOM     29  O   UNL     1      -1.745 -47.734  16.345  1.00  0.00    -0.381 OA
ATOM     30  C   UNL     1      -0.480 -48.339  16.101  1.00  0.00     0.195 C 
ENDBRANCH  28  29
ENDBRANCH  27  28
ENDBRANCH  26  27
ENDBRANCH   7  26
TORSDOF 10
ENDMDL
MODEL 7
REMARK minimizedAffinity -6.16635895
REMARK CNNscore 0.748687744
REMARK CNNaffinity 6.44246054
REMARK SMILES C#Cc1cccc(Nc2ncnc3cc(OCCOC)c(OCCOC)cc23)c1
REMARK SMILES IDX 9 1 10 2 11 3 12 4 13 5 14 6 15 7 21 8 27 9 28 10 8 11 7 13
REMARK SMILES IDX 2 14 3 15 4 16 29 17 5 18 6 19 1 20 22 21 23 22 24 23 25 24
REMARK SMILES IDX 26 25 16 26 17 27 18 28 19 29 20 30
REMARK H PARENT 8 12
ROOT
ATOM      1  C   UNL     1       0.760 -52.391  19.703  1.00  0.00     0.141 A 
ATOM      2  N   UNL     1       1.707 -53.335  19.843  1.00  0.00    -0.219 NA
ATOM      3  C   UNL     1       1.885 -53.839  21.066  1.00  0.00     0.224 A 
ATOM      4  N   UNL     1       1.209 -53.493  22.166  1.00  0.00    -0.236 NA
ATOM      5  C   UNL     1       0.257 -52.568  22.020  1.00  0.00     0.080 A 
ATOM      6  C   UNL     1      -0.470 -52.190  23.138  1.00  0.00     0.079 A 
ATOM      7  C   UNL     1      -1.498 -51.245  23.059  1.00  0.00     0.163 A 
ATOM      8  C   UNL     1      -1.799 -50.625  21.844  1.00  0.00     0.162 A 
ATOM      9  C   UNL     1      -1.077 -50.999  20.711  1.00  0.00     0.064 A 
ATOM     10  C   UNL     1      -0.035 -51.965  20.788  1.00  0.00     0.047 A 
ENDROOT
BRANCH   1  11
ATOM     11  N   UNL     1       0.567 -51.779  18.432  1.00  0.00    -0.340 N 
ATOM     12  H   UNL     1       0.203 -50.844  18.579  1.00  0.00     0.168 HD
BRANCH  11  13
ATOM     13  C   UNL     1       1.415 -51.820  17.299  1.00  0.00     0.041 A 
ATOM     14  C   UNL     1       1.621 -50.594  13.769  1.00  0.00    -0.070 C 
ATOM     15  C   UNL     1       1.983 -51.212  15.008  1.00  0.00     0.026 A 
ATOM     16  C   UNL     1       3.239 -51.805  15.148  1.00  0.00     0.017 A 
ATOM     17  C   UNL     1       1.084 -51.211  16.082  1.00  0.00     0.043 A 
ATOM     18  C   UNL     1       3.600 -52.382  16.364  1.00  0.00     0.003 A 
ATOM     19  C   UNL     1       2.699 -52.376  17.432  1.00  0.00     0.026 A 
ATOM     20  C   UNL     1       1.321 -50.069  12.732  1.00  0.00     0.010 C 
ENDBRANCH  11  13
ENDBRANCH   1  11
BRANCH   8  21
ATOM     21  O   UNL     1      -2.813 -49.705  21.866  1.00  0.00    -0.487 OA
BRANCH  21  22
ATOM     22  C   UNL     1      -2.521 -48.383  21.403  1.00  0.00     0.258 C 
BRANCH  22  23
ATOM     23  C   UNL     1      -3.438 -48.064  20.221  1.00  0.00     0.201 C 
BRANCH  23  24
ATOM     24  O   UNL     1      -4.398 -49.114  20.067  1.00  0.00    -0.381 OA
ATOM     25  C   UNL     1      -5.725 -48.603  20.001  1.00  0.00     0.195 C 
ENDBRANCH  23  24
ENDBRANCH  22  23
ENDBRANCH  21  22
ENDBRANCH   8  21
BRANCH   7  26
ATOM     26  O   UNL     1      -2.163 -50.840  24.189  1.00  0.00    -0.487 OA
BRANCH  26  27
ATOM     27  C   UNL     1      -1.793 -51.582  25.359  1.00  0.00     0.258 C 
BRANCH  27  28
ATOM     28  C   UNL     1      -3.035 -51.800  26.224  1.00  0.00     0.201 C 
BRANCH  28  29
ATOM     29  O   UNL     1      -2.770 -52.626  27.359  1.00  0.00    -0.381 OA
ATOM     30  C   UNL     1      -1.387 -52.697  27.688  1.00  0.00     0.195 C 
ENDBRANCH  28  29
ENDBRANCH  27  28
ENDBRANCH  26  27
ENDBRANCH   7  26
TORSDOF 10
ENDMDL
MODEL 8
REMARK minimizedAffinity -5.96894884
REMARK CNNscore 0.74493289
REMARK CNNaffinity 6.52877283
REMARK SMILES C#Cc1cccc(Nc2ncnc3cc(OCCOC)c(OCCOC)cc23)c1
REMARK SMILES IDX 9 1 10 2 11 3 12 4 13 5 14 6 15 7 21 8 27 9 28 10 8 11 7 13
REMARK SMILES IDX 2 14 3 15 4 16 29 17 5 18 6 19 1 20 22 21 23 22 24 23 25 24
REMARK SMILES IDX 26 25 16 26 17 27 18 28 19 29 20 30
REMARK H PARENT 8 12
ROOT
ATOM      1  C   UNL     1       0.869 -52.127  19.745  1.00  0.00     0.141 A 
ATOM      2  N   UNL     1       1.612 -53.232  19.553  1.00  0.00    -0.219 NA
ATOM      3  C   UNL     1       1.972 -53.916  20.641  1.00  0.00     0.224 A 
ATOM      4  N   UNL     1       1.663 -53.606  21.904  1.00  0.00    -0.236 NA
ATOM      5  C   UNL     1       0.910 -52.519  22.089  1.00  0.00     0.080 A 
ATOM      6  C   UNL     1       0.564 -52.172  23.386  1.00  0.00     0.079 A 
ATOM      7  C   UNL     1      -0.240 -51.060  23.657  1.00  0.00     0.163 A 
ATOM      8  C   UNL     1      -0.692 -50.242  22.619  1.00  0.00     0.162 A 
ATOM      9  C   UNL     1      -0.353 -50.583  21.309  1.00  0.00     0.064 A 
ATOM     10  C   UNL     1       0.460 -51.716  21.031  1.00  0.00     0.047 A 
ENDROOT
BRANCH   1  11
ATOM     11  N   UNL     1       0.505 -51.328  18.624  1.00  0.00    -0.340 N 
ATOM     12  H   UNL     1       0.271 -50.398  18.956  1.00  0.00     0.168 HD
BRANCH  11  13
ATOM     13  C   UNL     1       1.118 -51.271  17.349  1.00  0.00     0.041 A 
ATOM     14  C   UNL     1       4.198 -52.398  15.546  1.00  0.00    -0.070 C 
ATOM     15  C   UNL     1       2.911 -51.823  15.792  1.00  0.00     0.026 A 
ATOM     16  C   UNL     1       2.189 -51.259  14.740  1.00  0.00     0.017 A 
ATOM     17  C   UNL     1       2.372 -51.838  17.085  1.00  0.00     0.043 A 
ATOM     18  C   UNL     1       0.924 -50.725  14.976  1.00  0.00     0.003 A 
ATOM     19  C   UNL     1       0.391 -50.744  16.268  1.00  0.00     0.026 A 
ATOM     20  C   UNL     1       5.275 -52.887  15.337  1.00  0.00     0.010 C 
ENDBRANCH  11  13
ENDBRANCH   1  11
BRANCH   8  21
ATOM     21  O   UNL     1      -1.465 -49.171  22.981  1.00  0.00    -0.487 OA
BRANCH  21  22
ATOM     22  C   UNL     1      -1.574 -48.087  22.053  1.00  0.00     0.258 C 
BRANCH  22  23
ATOM     23  C   UNL     1      -3.054 -47.844  21.757  1.00  0.00     0.201 C 
BRANCH  23  24
ATOM     24  O   UNL     1      -3.816 -48.026  22.955  1.00  0.00    -0.381 OA
ATOM     25  C   UNL     1      -5.182 -48.304  22.668  1.00  0.00     0.195 C 
ENDBRANCH  23  24
ENDBRANCH  22  23
ENDBRANCH  21  22
ENDBRANCH   8  21
BRANCH   7  26
ATOM     26  O   UNL     1      -0.520 -50.699  24.950  1.00  0.00    -0.487 OA
BRANCH  26  27
ATOM     27  C   UNL     1      -1.180 -51.732  25.695  1.00  0.00     0.258 C 
BRANCH  27  28
ATOM     28  C   UNL     1      -2.514 -52.057  25.024  1.00  0.00     0.201 C 
BRANCH  28  29
ATOM     29  O   UNL     1      -3.436 -50.967  25.089  1.00  0.00    -0.381 OA
ATOM     30  C   UNL     1      -4.768 -51.342  24.754  1.00  0.00     0.195 C 
ENDBRANCH  28  29
ENDBRANCH  27  28
ENDBRANCH  26  27
ENDBRANCH   7  26
TORSDOF 10
ENDMDL
MODEL 9
REMARK minimizedAffinity -6.67826319
REMARK CNNscore 0.735547125
REMARK CNNaffinity 6.66721344
REMARK SMILES C#Cc1cccc(Nc2ncnc3cc(OCCOC)c(OCCOC)cc23)c1
REMARK SMILES IDX 9 1 10 2 11 3 12 4 13 5 14 6 15 7 21 8 27 9 28 10 8 11 7 13
REMARK SMILES IDX 2 14 3 15 4 16 29 17 5 18 6 19 1 20 22 21 23 22 24 23 25 24
REMARK SMILES IDX 26 25 16 26 17 27 18 28 19 29 20 30
REMARK H PARENT 8 12
ROOT
ATOM      1  C   UNL     1       0.355 -52.088  20.483  1.00  0.00     0.141 A 
ATOM      2  N   UNL     1       1.064 -53.195  20.197  1.00  0.00    -0.219 NA
ATOM      3  C   UNL     1       1.498 -53.920  21.230  1.00  0.00     0.224 A 
ATOM      4  N   UNL     1       1.295 -53.649  22.523  1.00  0.00    -0.236 NA
ATOM      5  C   UNL     1       0.575 -52.560  22.802  1.00  0.00     0.080 A 
ATOM      6  C   UNL     1       0.337 -52.253  24.133  1.00  0.00     0.079 A 
ATOM      7  C   UNL     1      -0.426 -51.141  24.503  1.00  0.00     0.163 A 
ATOM      8  C   UNL     1      -0.946 -50.282  23.532  1.00  0.00     0.162 A 
ATOM      9  C   UNL     1      -0.717 -50.583  22.189  1.00  0.00     0.064 A 
ATOM     10  C   UNL     1       0.055 -51.717  21.810  1.00  0.00     0.047 A 
ENDROOT
BRANCH   1  11
ATOM     11  N   UNL     1      -0.085 -51.248  19.421  1.00  0.00    -0.340 N 
ATOM     12  H   UNL     1      -0.344 -50.348  19.812  1.00  0.00     0.168 HD
BRANCH  11  13
ATOM     13  C   UNL     1       0.477 -51.096  18.130  1.00  0.00     0.041 A 
ATOM     14  C   UNL     1       3.405 -52.204  16.080  1.00  0.00    -0.070 C 
ATOM     15  C   UNL     1       2.166 -51.587  16.442  1.00  0.00     0.026 A 
ATOM     16  C   UNL     1       1.435 -50.880  15.486  1.00  0.00     0.017 A 
ATOM     17  C   UNL     1       1.682 -51.702  17.752  1.00  0.00     0.043 A 
ATOM     18  C   UNL     1       0.216 -50.304  15.835  1.00  0.00     0.003 A 
ATOM     19  C   UNL     1      -0.263 -50.423  17.142  1.00  0.00     0.026 A 
ATOM     20  C   UNL     1       4.441 -52.728  15.772  1.00  0.00     0.010 C 
ENDBRANCH  11  13
ENDBRANCH   1  11
BRANCH   8  21
ATOM     21  O   UNL     1      -1.672 -49.215  23.989  1.00  0.00    -0.487 OA
BRANCH  21  22
ATOM     22  C   UNL     1      -2.857 -48.861  23.270  1.00  0.00     0.258 C 
BRANCH  22  23
ATOM     23  C   UNL     1      -4.067 -49.095  24.176  1.00  0.00     0.201 C 
BRANCH  23  24
ATOM     24  O   UNL     1      -3.756 -50.115  25.131  1.00  0.00    -0.381 OA
ATOM     25  C   UNL     1      -4.452 -51.324  24.850  1.00  0.00     0.195 C 
ENDBRANCH  23  24
ENDBRANCH  22  23
ENDBRANCH  21  22
ENDBRANCH   8  21
BRANCH   7  26
ATOM     26  O   UNL     1      -0.597 -50.820  25.826  1.00  0.00    -0.487 OA
BRANCH  26  27
ATOM     27  C   UNL     1      -0.129 -51.839  26.720  1.00  0.00     0.258 C 
BRANCH  27  28
ATOM     28  C   UNL     1      -1.308 -52.360  27.544  1.00  0.00     0.201 C 
BRANCH  28  29
ATOM     29  O   UNL     1      -1.173 -53.744  27.872  1.00  0.00    -0.381 OA
ATOM     30  C   UNL     1      -0.009 -54.341  27.312  1.00  0.00     0.195 C 
ENDBRANCH  28  29
ENDBRANCH  27  28
ENDBRANCH  26  27
ENDBRANCH   7  26
TORSDOF 10
ENDMDL
