MODEL 1
REMARK minimizedAffinity -5.28837967
REMARK CNNscore 0.657259524
REMARK CNNaffinity 5.43417358
REMARK SMILES Brc1ccc(-c2csc(-c3cccnc3)n2)cn1
REMARK SMILES IDX 1 1 2 2 3 3 4 4 5 5 17 6 18 7 6 8 7 9 16 10 8 11 9 12 10 13
REMARK SMILES IDX 11 14 15 15 12 16 14 17 13 18
REMARK H PARENT
ROOT
ATOM      1  Br  UNL     1      89.559  82.092  43.968  1.00  0.00    -0.029 Br
ATOM      2  C   UNL     1      89.546  81.606  45.800  1.00  0.00     0.106 A 
ATOM      3  C   UNL     1      88.853  80.469  46.187  1.00  0.00     0.037 A 
ATOM      4  C   UNL     1      88.848  80.116  47.539  1.00  0.00     0.015 A 
ATOM      5  C   UNL     1      89.530  80.903  48.470  1.00  0.00     0.019 A 
ATOM      6  C   UNL     1      90.193  82.024  47.970  1.00  0.00     0.122 A 
ATOM      7  N   UNL     1      90.217  82.392  46.663  1.00  0.00    -0.249 NA
ENDROOT
BRANCH   5   8
ATOM      8  C   UNL     1      89.575  80.608  49.897  1.00  0.00     0.083 A 
ATOM      9  C   UNL     1      89.420  81.534  50.909  1.00  0.00     0.096 A 
ATOM     10  N   UNL     1      89.786  79.311  50.344  1.00  0.00    -0.236 NA
ATOM     11  S   UNL     1      89.542  80.769  52.435  1.00  0.00    -0.122 S 
ATOM     12  C   UNL     1      89.792  79.249  51.663  1.00  0.00     0.125 A 
BRANCH  12  13
ATOM     13  C   UNL     1      89.993  78.003  52.421  1.00  0.00     0.029 A 
ATOM     14  C   UNL     1      88.890  77.199  52.743  1.00  0.00     0.014 A 
ATOM     15  C   UNL     1      91.234  77.543  52.860  1.00  0.00     0.122 A 
ATOM     16  C   UNL     1      89.058  76.015  53.460  1.00  0.00     0.021 A 
ATOM     17  N   UNL     1      91.432  76.395  53.561  1.00  0.00    -0.264 NA
ATOM     18  C   UNL     1      90.339  75.659  53.844  1.00  0.00     0.111 A 
ENDBRANCH  12  13
ENDBRANCH   5   8
TORSDOF 2
ENDMDL
MODEL 2
REMARK minimizedAffinity -3.99062395
REMARK CNNscore 0.644466758
REMARK CNNaffinity 5.04307413
REMARK SMILES Brc1ccc(-c2csc(-c3cccnc3)n2)cn1
REMARK SMILES IDX 1 1 2 2 3 3 4 4 5 5 17 6 18 7 6 8 7 9 16 10 8 11 9 12 10 13
REMARK SMILES IDX 11 14 15 15 12 16 14 17 13 18
REMARK H PARENT
ROOT
ATOM      1  Br  UNL     1      65.496  26.570  28.022  1.00  0.00    -0.029 Br
ATOM      2  C   UNL     1      65.428  27.844  29.425  1.00  0.00     0.106 A 
ATOM      3  C   UNL     1      65.734  27.437  30.714  1.00  0.00     0.037 A 
ATOM      4  C   UNL     1      65.683  28.380  31.744  1.00  0.00     0.015 A 
ATOM      5  C   UNL     1      65.327  29.703  31.464  1.00  0.00     0.019 A 
ATOM      6  C   UNL     1      65.039  30.001  30.132  1.00  0.00     0.122 A 
ATOM      7  N   UNL     1      65.081  29.107  29.111  1.00  0.00    -0.249 NA
ENDROOT
BRANCH   5   8
ATOM      8  C   UNL     1      65.248  30.748  32.477  1.00  0.00     0.083 A 
ATOM      9  C   UNL     1      66.079  31.848  32.555  1.00  0.00     0.096 A 
ATOM     10  N   UNL     1      64.282  30.697  33.472  1.00  0.00    -0.236 NA
ATOM     11  S   UNL     1      65.643  32.825  33.891  1.00  0.00    -0.122 S 
ATOM     12  C   UNL     1      64.373  31.730  34.288  1.00  0.00     0.125 A 
BRANCH  12  13
ATOM     13  C   UNL     1      63.481  31.943  35.440  1.00  0.00     0.029 A 
ATOM     14  C   UNL     1      63.160  33.249  35.839  1.00  0.00     0.014 A 
ATOM     15  C   UNL     1      62.908  30.917  36.190  1.00  0.00     0.122 A 
ATOM     16  C   UNL     1      62.316  33.474  36.926  1.00  0.00     0.021 A 
ATOM     17  N   UNL     1      62.083  31.101  37.254  1.00  0.00    -0.264 NA
ATOM     18  C   UNL     1      61.807  32.376  37.597  1.00  0.00     0.111 A 
ENDBRANCH  12  13
ENDBRANCH   5   8
TORSDOF 2
ENDMDL
MODEL 3
REMARK minimizedAffinity -4.67139435
REMARK CNNscore 0.63979584
REMARK CNNaffinity 4.88453913
REMARK SMILES Brc1ccc(-c2csc(-c3cccnc3)n2)cn1
REMARK SMILES IDX 1 1 2 2 3 3 4 4 5 5 17 6 18 7 6 8 7 9 16 10 8 11 9 12 10 13
REMARK SMILES IDX 11 14 15 15 12 16 14 17 13 18
REMARK H PARENT
ROOT
ATOM      1  Br  UNL     1      76.665  32.424  29.189  1.00  0.00    -0.029 Br
ATOM      2  C   UNL     1      78.337  33.251  29.530  1.00  0.00     0.106 A 
ATOM      3  C   UNL     1      78.471  34.051  30.655  1.00  0.00     0.037 A 
ATOM      4  C   UNL     1      79.706  34.657  30.901  1.00  0.00     0.015 A 
ATOM      5  C   UNL     1      80.773  34.453  30.022  1.00  0.00     0.019 A 
ATOM      6  C   UNL     1      80.526  33.630  28.923  1.00  0.00     0.122 A 
ATOM      7  N   UNL     1      79.338  33.027  28.658  1.00  0.00    -0.249 NA
ENDROOT
BRANCH   5   8
ATOM      8  C   UNL     1      82.092  35.047  30.203  1.00  0.00     0.083 A 
ATOM      9  C   UNL     1      83.288  34.358  30.182  1.00  0.00     0.096 A 
ATOM     10  N   UNL     1      82.229  36.412  30.417  1.00  0.00    -0.236 NA
ATOM     11  S   UNL     1      84.596  35.433  30.434  1.00  0.00    -0.122 S 
ATOM     12  C   UNL     1      83.497  36.754  30.556  1.00  0.00     0.125 A 
BRANCH  12  13
ATOM     13  C   UNL     1      83.948  38.135  30.794  1.00  0.00     0.029 A 
ATOM     14  C   UNL     1      83.006  39.171  30.874  1.00  0.00     0.014 A 
ATOM     15  C   UNL     1      85.282  38.510  30.953  1.00  0.00     0.122 A 
ATOM     16  C   UNL     1      83.411  40.486  31.098  1.00  0.00     0.021 A 
ATOM     17  N   UNL     1      85.711  39.780  31.172  1.00  0.00    -0.264 NA
ATOM     18  C   UNL     1      84.764  40.739  31.240  1.00  0.00     0.111 A 
ENDBRANCH  12  13
ENDBRANCH   5   8
TORSDOF 2
ENDMDL
MODEL 4
REMARK minimizedAffinity -4.68098354
REMARK CNNscore 0.577387571
REMARK CNNaffinity 5.41197824
REMARK SMILES Brc1ccc(-c2csc(-c3cccnc3)n2)cn1
REMARK SMILES IDX 1 1 2 2 3 3 4 4 5 5 17 6 18 7 6 8 7 9 16 10 8 11 9 12 10 13
REMARK SMILES IDX 11 14 15 15 12 16 14 17 13 18
REMARK H PARENT
ROOT
ATOM      1  Br  UNL     1      82.567  21.034  51.385  1.00  0.00    -0.029 Br
ATOM      2  C   UNL     1      83.949  22.327  51.265  1.00  0.00     0.106 A 
ATOM      3  C   UNL     1      85.035  22.229  52.121  1.00  0.00     0.037 A 
ATOM      4  C   UNL     1      86.050  23.185  52.027  1.00  0.00     0.015 A 
ATOM      5  C   UNL     1      85.957  24.214  51.085  1.00  0.00     0.019 A 
ATOM      6  C   UNL     1      84.821  24.215  50.276  1.00  0.00     0.122 A 
ATOM      7  N   UNL     1      83.820  23.301  50.343  1.00  0.00    -0.249 NA
ENDROOT
BRANCH   5   8
ATOM      8  C   UNL     1      86.969  25.250  50.921  1.00  0.00     0.083 A 
ATOM      9  C   UNL     1      87.952  25.558  51.840  1.00  0.00     0.096 A 
ATOM     10  N   UNL     1      87.005  26.027  49.772  1.00  0.00    -0.236 NA
ATOM     11  S   UNL     1      88.929  26.836  51.256  1.00  0.00    -0.122 S 
ATOM     12  C   UNL     1      87.990  26.906  49.813  1.00  0.00     0.125 A 
BRANCH  12  13
ATOM     13  C   UNL     1      88.274  27.865  48.733  1.00  0.00     0.029 A 
ATOM     14  C   UNL     1      88.587  27.395  47.449  1.00  0.00     0.014 A 
ATOM     15  C   UNL     1      88.255  29.251  48.888  1.00  0.00     0.122 A 
ATOM     16  C   UNL     1      88.859  28.286  46.412  1.00  0.00     0.021 A 
ATOM     17  N   UNL     1      88.516  30.146  47.900  1.00  0.00    -0.264 NA
ATOM     18  C   UNL     1      88.811  29.642  46.685  1.00  0.00     0.111 A 
ENDBRANCH  12  13
ENDBRANCH   5   8
TORSDOF 2
ENDMDL
MODEL 5
REMARK minimizedAffinity -4.03683376
REMARK CNNscore 0.57129848
REMARK CNNaffinity 4.73204279
REMARK SMILES Brc1ccc(-c2csc(-c3cccnc3)n2)cn1
REMARK SMILES IDX 1 1 2 2 3 3 4 4 5 5 17 6 18 7 6 8 7 9 16 10 8 11 9 12 10 13
REMARK SMILES IDX 11 14 15 15 12 16 14 17 13 18
REMARK H PARENT
ROOT
ATOM      1  Br  UNL     1      77.524  41.212  33.248  1.00  0.00    -0.029 Br
ATOM      2  C   UNL     1      78.550  39.757  32.595  1.00  0.00     0.106 A 
ATOM      3  C   UNL     1      79.756  39.459  33.210  1.00  0.00     0.037 A 
ATOM      4  C   UNL     1      80.507  38.385  32.725  1.00  0.00     0.015 A 
ATOM      5  C   UNL     1      80.040  37.637  31.640  1.00  0.00     0.019 A 
ATOM      6  C   UNL     1      78.814  38.026  31.099  1.00  0.00     0.122 A 
ATOM      7  N   UNL     1      78.062  39.063  31.549  1.00  0.00    -0.249 NA
ENDROOT
BRANCH   5   8
ATOM      8  C   UNL     1      80.760  36.504  31.071  1.00  0.00     0.083 A 
ATOM      9  C   UNL     1      82.132  36.357  31.057  1.00  0.00     0.096 A 
ATOM     10  N   UNL     1      80.071  35.454  30.482  1.00  0.00    -0.236 NA
ATOM     11  S   UNL     1      82.561  34.885  30.295  1.00  0.00    -0.122 S 
ATOM     12  C   UNL     1      80.897  34.528  30.029  1.00  0.00     0.125 A 
BRANCH  12  13
ATOM     13  C   UNL     1      80.453  33.297  29.355  1.00  0.00     0.029 A 
ATOM     14  C   UNL     1      79.987  33.357  28.033  1.00  0.00     0.014 A 
ATOM     15  C   UNL     1      80.460  32.033  29.943  1.00  0.00     0.122 A 
ATOM     16  C   UNL     1      79.562  32.203  27.376  1.00  0.00     0.021 A 
ATOM     17  N   UNL     1      80.053  30.890  29.332  1.00  0.00    -0.264 NA
ATOM     18  C   UNL     1      79.613  31.003  28.062  1.00  0.00     0.111 A 
ENDBRANCH  12  13
ENDBRANCH   5   8
TORSDOF 2
ENDMDL
MODEL 6
REMARK minimizedAffinity -5.73812675
REMARK CNNscore 0.533300757
REMARK CNNaffinity 4.42153549
REMARK SMILES Brc1ccc(-c2csc(-c3cccnc3)n2)cn1
REMARK SMILES IDX 1 1 2 2 3 3 4 4 5 5 17 6 18 7 6 8 7 9 16 10 8 11 9 12 10 13
REMARK SMILES IDX 11 14 15 15 12 16 14 17 13 18
REMARK H PARENT
ROOT
ATOM      1  Br  UNL     1      82.431  32.509  59.480  1.00  0.00    -0.029 Br
ATOM      2  C   UNL     1      84.309  32.250  59.478  1.00  0.00     0.106 A 
ATOM      3  C   UNL     1      84.818  31.038  59.038  1.00  0.00     0.037 A 
ATOM      4  C   UNL     1      86.203  30.854  59.039  1.00  0.00     0.015 A 
ATOM      5  C   UNL     1      87.046  31.880  59.476  1.00  0.00     0.019 A 
ATOM      6  C   UNL     1      86.426  33.057  59.896  1.00  0.00     0.122 A 
ATOM      7  N   UNL     1      85.084  33.265  59.907  1.00  0.00    -0.249 NA
ENDROOT
BRANCH   5   8
ATOM      8  C   UNL     1      88.499  31.771  59.510  1.00  0.00     0.083 A 
ATOM      9  C   UNL     1      89.291  32.000  60.617  1.00  0.00     0.096 A 
ATOM     10  N   UNL     1      89.208  31.411  58.372  1.00  0.00    -0.236 NA
ATOM     11  S   UNL     1      90.940  31.762  60.225  1.00  0.00    -0.122 S 
ATOM     12  C   UNL     1      90.506  31.367  58.605  1.00  0.00     0.125 A 
BRANCH  12  13
ATOM     13  C   UNL     1      91.508  31.014  57.585  1.00  0.00     0.029 A 
ATOM     14  C   UNL     1      91.837  31.940  56.584  1.00  0.00     0.014 A 
ATOM     15  C   UNL     1      92.179  29.793  57.532  1.00  0.00     0.122 A 
ATOM     16  C   UNL     1      92.782  31.627  55.608  1.00  0.00     0.021 A 
ATOM     17  N   UNL     1      93.104  29.456  56.596  1.00  0.00    -0.264 NA
ATOM     18  C   UNL     1      93.384  30.382  55.656  1.00  0.00     0.111 A 
ENDBRANCH  12  13
ENDBRANCH   5   8
TORSDOF 2
ENDMDL
MODEL 7
REMARK minimizedAffinity -5.84437752
REMARK CNNscore 0.519861579
REMARK CNNaffinity 4.49799013
REMARK SMILES Brc1ccc(-c2csc(-c3cccnc3)n2)cn1
REMARK SMILES IDX 1 1 2 2 3 3 4 4 5 5 17 6 18 7 6 8 7 9 16 10 8 11 9 12 10 13
REMARK SMILES IDX 11 14 15 15 12 16 14 17 13 18
REMARK H PARENT
ROOT
ATOM      1  Br  UNL     1      73.149  62.394  57.139  1.00  0.00    -0.029 Br
ATOM      2  C   UNL     1      72.446  61.122  55.921  1.00  0.00     0.106 A 
ATOM      3  C   UNL     1      72.570  59.773  56.216  1.00  0.00     0.037 A 
ATOM      4  C   UNL     1      72.049  58.841  55.315  1.00  0.00     0.015 A 
ATOM      5  C   UNL     1      71.420  59.275  54.144  1.00  0.00     0.019 A 
ATOM      6  C   UNL     1      71.351  60.654  53.950  1.00  0.00     0.122 A 
ATOM      7  N   UNL     1      71.847  61.584  54.807  1.00  0.00    -0.249 NA
ENDROOT
BRANCH   5   8
ATOM      8  C   UNL     1      70.851  58.371  53.152  1.00  0.00     0.083 A 
ATOM      9  C   UNL     1      70.135  57.225  53.434  1.00  0.00     0.096 A 
ATOM     10  N   UNL     1      71.003  58.625  51.796  1.00  0.00    -0.236 NA
ATOM     11  S   UNL     1      69.649  56.458  51.982  1.00  0.00    -0.122 S 
ATOM     12  C   UNL     1      70.418  57.696  51.062  1.00  0.00     0.125 A 
BRANCH  12  13
ATOM     13  C   UNL     1      70.414  57.701  49.590  1.00  0.00     0.029 A 
ATOM     14  C   UNL     1      71.204  58.628  48.895  1.00  0.00     0.014 A 
ATOM     15  C   UNL     1      69.664  56.827  48.803  1.00  0.00     0.122 A 
ATOM     16  C   UNL     1      71.215  58.651  47.501  1.00  0.00     0.021 A 
ATOM     17  N   UNL     1      69.652  56.822  47.444  1.00  0.00    -0.264 NA
ATOM     18  C   UNL     1      70.429  57.734  46.825  1.00  0.00     0.111 A 
ENDBRANCH  12  13
ENDBRANCH   5   8
TORSDOF 2
ENDMDL
MODEL 8
REMARK minimizedAffinity -3.89533424
REMARK CNNscore 0.497025251
REMARK CNNaffinity 4.21461725
REMARK SMILES Brc1ccc(-c2csc(-c3cccnc3)n2)cn1
REMARK SMILES IDX 1 1 2 2 3 3 4 4 5 5 17 6 18 7 6 8 7 9 16 10 8 11 9 12 10 13
REMARK SMILES IDX 11 14 15 15 12 16 14 17 13 18
REMARK H PARENT
ROOT
ATOM      1  Br  UNL     1      84.802  26.620  35.908  1.00  0.00    -0.029 Br
ATOM      2  C   UNL     1      86.503  27.268  35.376  1.00  0.00     0.106 A 
ATOM      3  C   UNL     1      87.004  26.895  34.138  1.00  0.00     0.037 A 
ATOM      4  C   UNL     1      88.258  27.377  33.751  1.00  0.00     0.015 A 
ATOM      5  C   UNL     1      88.980  28.214  34.606  1.00  0.00     0.019 A 
ATOM      6  C   UNL     1      88.380  28.524  35.827  1.00  0.00     0.122 A 
ATOM      7  N   UNL     1      87.164  28.072  36.230  1.00  0.00    -0.249 NA
ENDROOT
BRANCH   5   8
ATOM      8  C   UNL     1      90.293  28.759  34.282  1.00  0.00     0.083 A 
ATOM      9  C   UNL     1      90.916  28.661  33.055  1.00  0.00     0.096 A 
ATOM     10  N   UNL     1      91.029  29.443  35.239  1.00  0.00    -0.236 NA
ATOM     11  S   UNL     1      92.442  29.435  33.103  1.00  0.00    -0.122 S 
ATOM     12  C   UNL     1      92.185  29.857  34.754  1.00  0.00     0.125 A 
BRANCH  12  13
ATOM     13  C   UNL     1      93.177  30.612  35.538  1.00  0.00     0.029 A 
ATOM     14  C   UNL     1      93.007  31.990  35.733  1.00  0.00     0.014 A 
ATOM     15  C   UNL     1      94.310  30.048  36.122  1.00  0.00     0.122 A 
ATOM     16  C   UNL     1      93.934  32.724  36.472  1.00  0.00     0.021 A 
ATOM     17  N   UNL     1      95.233  30.733  36.847  1.00  0.00    -0.264 NA
ATOM     18  C   UNL     1      95.022  32.056  37.005  1.00  0.00     0.111 A 
ENDBRANCH  12  13
ENDBRANCH   5   8
TORSDOF 2
ENDMDL
MODEL 9
REMARK minimizedAffinity -4.42446232
REMARK CNNscore 0.44981873
REMARK CNNaffinity 4.2725668
REMARK SMILES Brc1ccc(-c2csc(-c3cccnc3)n2)cn1
REMARK SMILES IDX 1 1 2 2 3 3 4 4 5 5 17 6 18 7 6 8 7 9 16 10 8 11 9 12 10 13
REMARK SMILES IDX 11 14 15 15 12 16 14 17 13 18
REMARK H PARENT
ROOT
ATOM      1  Br  UNL     1      77.982  41.597  33.912  1.00  0.00    -0.029 Br
ATOM      2  C   UNL     1      78.998  40.193  33.145  1.00  0.00     0.106 A 
ATOM      3  C   UNL     1      80.270  39.941  33.635  1.00  0.00     0.037 A 
ATOM      4  C   UNL     1      81.014  38.904  33.066  1.00  0.00     0.015 A 
ATOM      5  C   UNL     1      80.474  38.146  32.023  1.00  0.00     0.019 A 
ATOM      6  C   UNL     1      79.186  38.486  31.610  1.00  0.00     0.122 A 
ATOM      7  N   UNL     1      78.439  39.487  32.143  1.00  0.00    -0.249 NA
ENDROOT
BRANCH   5   8
ATOM      8  C   UNL     1      81.181  37.049  31.373  1.00  0.00     0.083 A 
ATOM      9  C   UNL     1      80.792  35.725  31.396  1.00  0.00     0.096 A 
ATOM     10  N   UNL     1      82.345  37.285  30.656  1.00  0.00    -0.236 NA
ATOM     11  S   UNL     1      81.900  34.768  30.509  1.00  0.00    -0.122 S 
ATOM     12  C   UNL     1      82.832  36.170  30.144  1.00  0.00     0.125 A 
BRANCH  12  13
ATOM     13  C   UNL     1      84.060  36.111  29.334  1.00  0.00     0.029 A 
ATOM     14  C   UNL     1      85.308  36.018  29.968  1.00  0.00     0.014 A 
ATOM     15  C   UNL     1      84.084  36.140  27.941  1.00  0.00     0.122 A 
ATOM     16  C   UNL     1      86.483  35.961  29.221  1.00  0.00     0.021 A 
ATOM     17  N   UNL     1      85.211  36.087  27.182  1.00  0.00    -0.264 NA
ATOM     18  C   UNL     1      86.384  35.999  27.841  1.00  0.00     0.111 A 
ENDBRANCH  12  13
ENDBRANCH   5   8
TORSDOF 2
ENDMDL
