MODEL 1
REMARK VINA RESULT:      -7.2      0.000      0.000
REMARK SMILES C=CC(=O)Nc1cc(Nc2nccc(-c3cn(C)c4ccccc34)n2)c(OC)cc1N(C)CCN(C)C
REMARK SMILES IDX 6 1 7 2 8 3 26 4 29 5 30 6 5 7 3 8 4 9 2 11 1 12 31 13 32 14
REMARK SMILES IDX 33 15 34 16 35 17 36 18 37 19 9 20 10 22 11 23 25 24 12 25
REMARK SMILES IDX 14 26 13 27 15 28 16 29 24 30 17 31 23 32 19 33 22 34 20 35
REMARK SMILES IDX 21 36 18 37 27 38 28 39
REMARK H PARENT 5 10 9 21
ROOT
ATOM      1  C   UNL     1      -1.056 -47.449  20.448  1.00  0.00     0.067 A 
ATOM      2  C   UNL     1      -0.087 -48.442  20.632  1.00  0.00     0.058 A 
ATOM      3  C   UNL     1       0.044 -49.503  19.723  1.00  0.00     0.086 A 
ATOM      4  C   UNL     1      -0.828 -49.554  18.610  1.00  0.00     0.144 A 
ATOM      5  C   UNL     1      -1.799 -48.566  18.424  1.00  0.00     0.076 A 
ATOM      6  C   UNL     1      -1.931 -47.509  19.339  1.00  0.00     0.064 A 
ENDROOT
BRANCH   1   7
ATOM      7  N   UNL     1      -1.242 -46.361  21.329  1.00  0.00    -0.321 N 
ATOM      8  C   UNL     1      -1.831 -46.357  22.567  1.00  0.00     0.247 C 
ATOM      9  O   UNL     1      -2.226 -47.317  23.216  1.00  0.00    -0.270 OA
ATOM     10  H   UNL     1      -0.820 -45.505  20.981  1.00  0.00     0.170 HD
BRANCH   8  11
ATOM     11  C   UNL     1      -1.911 -45.010  23.193  1.00  0.00     0.064 C 
ATOM     12  C   UNL     1      -0.974 -44.500  24.001  1.00  0.00     0.014 C 
ENDBRANCH   8  11
ENDBRANCH   1   7
BRANCH   6  13
ATOM     13  N   UNL     1      -2.899 -46.467  19.160  1.00  0.00    -0.372 N 
ATOM     14  C   UNL     1      -2.515 -45.618  18.024  1.00  0.00     0.143 C 
BRANCH  13  15
ATOM     15  C   UNL     1      -4.289 -46.992  19.095  1.00  0.00     0.131 C 
BRANCH  15  16
ATOM     16  C   UNL     1      -4.709 -47.647  20.436  1.00  0.00     0.105 C 
BRANCH  16  17
ATOM     17  N   UNL     1      -5.016 -49.094  20.447  1.00  0.00    -0.308 NA
ATOM     18  C   UNL     1      -4.043 -49.884  21.192  1.00  0.00     0.105 C 
ATOM     19  C   UNL     1      -6.372 -49.365  20.919  1.00  0.00     0.105 C 
ENDBRANCH  16  17
ENDBRANCH  15  16
ENDBRANCH  13  15
ENDBRANCH   6  13
BRANCH   3  20
ATOM     20  N   UNL     1       0.989 -50.535  19.863  1.00  0.00    -0.321 N 
ATOM     21  H   UNL     1       1.813 -50.428  19.285  1.00  0.00     0.170 HD
BRANCH  20  22
ATOM     22  C   UNL     1       1.103 -51.661  20.665  1.00  0.00     0.227 A 
ATOM     23  N   UNL     1       1.671 -52.788  20.218  1.00  0.00    -0.221 NA
ATOM     24  N   UNL     1       0.612 -51.532  21.906  1.00  0.00    -0.213 NA
ATOM     25  C   UNL     1       1.736 -53.832  21.059  1.00  0.00     0.117 A 
ATOM     26  C   UNL     1       0.682 -52.607  22.720  1.00  0.00     0.078 A 
ATOM     27  C   UNL     1       1.252 -53.800  22.340  1.00  0.00     0.049 A 
BRANCH  26  28
ATOM     28  C   UNL     1       0.133 -52.432  24.058  1.00  0.00     0.026 A 
ATOM     29  C   UNL     1       0.922 -52.474  25.192  1.00  0.00     0.096 A 
ATOM     30  C   UNL     1      -1.213 -52.196  24.495  1.00  0.00     0.009 A 
ATOM     31  N   UNL     1       0.119 -52.301  26.284  1.00  0.00    -0.350 N 
ATOM     32  C   UNL     1      -2.450 -52.015  23.836  1.00  0.00     0.011 A 
ATOM     33  C   UNL     1      -1.193 -52.134  25.893  1.00  0.00     0.048 A 
ATOM     34  C   UNL     1      -3.615 -51.803  24.582  1.00  0.00     0.001 A 
ATOM     35  C   UNL     1      -2.357 -51.923  26.651  1.00  0.00     0.027 A 
ATOM     36  C   UNL     1      -3.567 -51.762  25.971  1.00  0.00     0.002 A 
ATOM     37  C   UNL     1       0.585 -52.287  27.653  1.00  0.00     0.149 C 
ENDBRANCH  26  28
ENDBRANCH  20  22
ENDBRANCH   3  20
BRANCH   4  38
ATOM     38  O   UNL     1      -0.630 -50.626  17.766  1.00  0.00    -0.494 OA
ATOM     39  C   UNL     1      -0.247 -50.343  16.427  1.00  0.00     0.278 C 
ENDBRANCH   4  38
TORSDOF 10
ENDMDL
MODEL 2
REMARK VINA RESULT:      -7.1      2.468      6.430
REMARK SMILES C=CC(=O)Nc1cc(Nc2nccc(-c3cn(C)c4ccccc34)n2)c(OC)cc1N(C)CCN(C)C
REMARK SMILES IDX 6 1 7 2 8 3 26 4 29 5 30 6 5 7 3 8 4 9 2 11 1 12 31 13 32 14
REMARK SMILES IDX 33 15 34 16 35 17 36 18 37 19 9 20 10 22 11 23 25 24 12 25
REMARK SMILES IDX 14 26 13 27 15 28 16 29 24 30 17 31 23 32 19 33 22 34 20 35
REMARK SMILES IDX 21 36 18 37 27 38 28 39
REMARK H PARENT 5 10 9 21
ROOT
ATOM      1  C   UNL     1      -5.444 -49.705  24.170  1.00  0.00     0.067 A 
ATOM      2  C   UNL     1      -4.713 -50.845  24.524  1.00  0.00     0.058 A 
ATOM      3  C   UNL     1      -3.895 -50.855  25.663  1.00  0.00     0.086 A 
ATOM      4  C   UNL     1      -3.818 -49.684  26.453  1.00  0.00     0.144 A 
ATOM      5  C   UNL     1      -4.544 -48.543  26.103  1.00  0.00     0.076 A 
ATOM      6  C   UNL     1      -5.358 -48.535  24.957  1.00  0.00     0.064 A 
ENDROOT
BRANCH   1   7
ATOM      7  N   UNL     1      -6.279 -49.631  23.034  1.00  0.00    -0.321 N 
ATOM      8  C   UNL     1      -5.919 -49.478  21.719  1.00  0.00     0.247 C 
ATOM      9  O   UNL     1      -4.792 -49.479  21.242  1.00  0.00    -0.270 OA
ATOM     10  H   UNL     1      -7.259 -49.767  23.263  1.00  0.00     0.170 HD
BRANCH   8  11
ATOM     11  C   UNL     1      -7.074 -49.375  20.786  1.00  0.00     0.064 C 
ATOM     12  C   UNL     1      -7.974 -48.386  20.811  1.00  0.00     0.014 C 
ENDBRANCH   8  11
ENDBRANCH   1   7
BRANCH   6  13
ATOM     13  N   UNL     1      -6.134 -47.388  24.587  1.00  0.00    -0.372 N 
ATOM     14  C   UNL     1      -7.240 -47.206  25.537  1.00  0.00     0.143 C 
BRANCH  13  15
ATOM     15  C   UNL     1      -5.294 -46.179  24.379  1.00  0.00     0.131 C 
BRANCH  15  16
ATOM     16  C   UNL     1      -4.444 -46.297  23.087  1.00  0.00     0.105 C 
BRANCH  16  17
ATOM     17  N   UNL     1      -2.983 -46.090  23.185  1.00  0.00    -0.308 NA
ATOM     18  C   UNL     1      -2.470 -45.133  22.211  1.00  0.00     0.105 C 
ATOM     19  C   UNL     1      -2.568 -45.723  24.537  1.00  0.00     0.105 C 
ENDBRANCH  16  17
ENDBRANCH  15  16
ENDBRANCH  13  15
ENDBRANCH   6  13
BRANCH   3  20
ATOM     20  N   UNL     1      -3.128 -51.965  26.061  1.00  0.00    -0.321 N 
ATOM     21  H   UNL     1      -3.607 -52.602  26.685  1.00  0.00     0.170 HD
BRANCH  20  22
ATOM     22  C   UNL     1      -1.866 -52.450  25.751  1.00  0.00     0.227 A 
ATOM     23  N   UNL     1      -1.162 -53.186  26.620  1.00  0.00    -0.221 NA
ATOM     24  N   UNL     1      -1.415 -52.131  24.529  1.00  0.00    -0.213 NA
ATOM     25  C   UNL     1       0.053 -53.612  26.240  1.00  0.00     0.117 A 
ATOM     26  C   UNL     1      -0.183 -52.563  24.187  1.00  0.00     0.078 A 
ATOM     27  C   UNL     1       0.603 -53.327  25.018  1.00  0.00     0.049 A 
BRANCH  26  28
ATOM     28  C   UNL     1       0.276 -52.193  22.854  1.00  0.00     0.026 A 
ATOM     29  C   UNL     1       1.025 -53.047  22.066  1.00  0.00     0.096 A 
ATOM     30  C   UNL     1       0.091 -50.986  22.102  1.00  0.00     0.009 A 
ATOM     31  N   UNL     1       1.318 -52.408  20.894  1.00  0.00    -0.350 N 
ATOM     32  C   UNL     1      -0.599 -49.774  22.329  1.00  0.00     0.011 A 
ATOM     33  C   UNL     1       0.767 -51.145  20.886  1.00  0.00     0.048 A 
ATOM     34  C   UNL     1      -0.576 -48.764  21.361  1.00  0.00     0.001 A 
ATOM     35  C   UNL     1       0.798 -50.136  19.908  1.00  0.00     0.027 A 
ATOM     36  C   UNL     1       0.118 -48.944  20.169  1.00  0.00     0.002 A 
ATOM     37  C   UNL     1       2.089 -52.985  19.815  1.00  0.00     0.149 C 
ENDBRANCH  26  28
ENDBRANCH  20  22
ENDBRANCH   3  20
BRANCH   4  38
ATOM     38  O   UNL     1      -2.995 -49.780  27.556  1.00  0.00    -0.494 OA
ATOM     39  C   UNL     1      -3.590 -49.606  28.834  1.00  0.00     0.278 C 
ENDBRANCH   4  38
TORSDOF 10
ENDMDL
MODEL 3
REMARK VINA RESULT:      -7.0      3.028      5.591
REMARK SMILES C=CC(=O)Nc1cc(Nc2nccc(-c3cn(C)c4ccccc34)n2)c(OC)cc1N(C)CCN(C)C
REMARK SMILES IDX 6 1 7 2 8 3 26 4 29 5 30 6 5 7 3 8 4 9 2 11 1 12 31 13 32 14
REMARK SMILES IDX 33 15 34 16 35 17 36 18 37 19 9 20 10 22 11 23 25 24 12 25
REMARK SMILES IDX 14 26 13 27 15 28 16 29 24 30 17 31 23 32 19 33 22 34 20 35
REMARK SMILES IDX 21 36 18 37 27 38 28 39
REMARK H PARENT 5 10 9 21
ROOT
ATOM      1  C   UNL     1       0.097 -50.152  16.551  1.00  0.00     0.067 A 
ATOM      2  C   UNL     1       0.499 -50.924  17.647  1.00  0.00     0.058 A 
ATOM      3  C   UNL     1       1.569 -51.825  17.545  1.00  0.00     0.086 A 
ATOM      4  C   UNL     1       2.239 -51.944  16.305  1.00  0.00     0.144 A 
ATOM      5  C   UNL     1       1.840 -51.177  15.206  1.00  0.00     0.076 A 
ATOM      6  C   UNL     1       0.764 -50.280  15.311  1.00  0.00     0.064 A 
ENDROOT
BRANCH   1   7
ATOM      7  N   UNL     1      -0.974 -49.233  16.589  1.00  0.00    -0.321 N 
ATOM      8  C   UNL     1      -2.308 -49.485  16.783  1.00  0.00     0.247 C 
ATOM      9  O   UNL     1      -2.839 -50.550  17.069  1.00  0.00    -0.270 OA
ATOM     10  H   UNL     1      -0.661 -48.269  16.513  1.00  0.00     0.170 HD
BRANCH   8  11
ATOM     11  C   UNL     1      -3.170 -48.275  16.700  1.00  0.00     0.064 C 
ATOM     12  C   UNL     1      -3.924 -47.819  17.707  1.00  0.00     0.014 C 
ENDBRANCH   8  11
ENDBRANCH   1   7
BRANCH   6  13
ATOM     13  N   UNL     1       0.348 -49.461  14.210  1.00  0.00    -0.372 N 
ATOM     14  C   UNL     1       1.390 -48.472  13.903  1.00  0.00     0.143 C 
BRANCH  13  15
ATOM     15  C   UNL     1      -0.099 -50.267  13.044  1.00  0.00     0.131 C 
BRANCH  15  16
ATOM     16  C   UNL     1      -1.352 -51.114  13.389  1.00  0.00     0.105 C 
BRANCH  16  17
ATOM     17  N   UNL     1      -2.602 -50.857  12.642  1.00  0.00    -0.308 NA
ATOM     18  C   UNL     1      -3.428 -49.816  13.241  1.00  0.00     0.105 C 
ATOM     19  C   UNL     1      -2.352 -50.570  11.231  1.00  0.00     0.105 C 
ENDBRANCH  16  17
ENDBRANCH  15  16
ENDBRANCH  13  15
ENDBRANCH   6  13
BRANCH   3  20
ATOM     20  N   UNL     1       2.008 -52.635  18.607  1.00  0.00    -0.321 N 
ATOM     21  H   UNL     1       2.814 -53.208  18.389  1.00  0.00     0.170 HD
BRANCH  20  22
ATOM     22  C   UNL     1       1.641 -52.801  19.934  1.00  0.00     0.227 A 
ATOM     23  N   UNL     1       1.982 -53.894  20.627  1.00  0.00    -0.221 NA
ATOM     24  N   UNL     1       0.933 -51.792  20.462  1.00  0.00    -0.213 NA
ATOM     25  C   UNL     1       1.582 -53.975  21.906  1.00  0.00     0.117 A 
ATOM     26  C   UNL     1       0.535 -51.914  21.747  1.00  0.00     0.078 A 
ATOM     27  C   UNL     1       0.846 -53.002  22.528  1.00  0.00     0.049 A 
BRANCH  26  28
ATOM     28  C   UNL     1      -0.237 -50.802  22.284  1.00  0.00     0.026 A 
ATOM     29  C   UNL     1      -0.901 -50.879  23.495  1.00  0.00     0.096 A 
ATOM     30  C   UNL     1      -0.479 -49.489  21.759  1.00  0.00     0.009 A 
ATOM     31  N   UNL     1      -1.547 -49.694  23.709  1.00  0.00    -0.350 N 
ATOM     32  C   UNL     1      -0.058 -48.792  20.604  1.00  0.00     0.011 A 
ATOM     33  C   UNL     1      -1.315 -48.825  22.665  1.00  0.00     0.048 A 
ATOM     34  C   UNL     1      -0.494 -47.481  20.381  1.00  0.00     0.001 A 
ATOM     35  C   UNL     1      -1.759 -47.510  22.449  1.00  0.00     0.027 A 
ATOM     36  C   UNL     1      -1.337 -46.852  21.291  1.00  0.00     0.002 A 
ATOM     37  C   UNL     1      -2.351 -49.397  24.874  1.00  0.00     0.149 C 
ENDBRANCH  26  28
ENDBRANCH  20  22
ENDBRANCH   3  20
BRANCH   4  38
ATOM     38  O   UNL     1       3.279 -52.848  16.290  1.00  0.00    -0.494 OA
ATOM     39  C   UNL     1       4.465 -52.472  15.605  1.00  0.00     0.278 C 
ENDBRANCH   4  38
TORSDOF 10
ENDMDL
MODEL 4
REMARK VINA RESULT:      -7.0      2.442      6.247
REMARK SMILES C=CC(=O)Nc1cc(Nc2nccc(-c3cn(C)c4ccccc34)n2)c(OC)cc1N(C)CCN(C)C
REMARK SMILES IDX 6 1 7 2 8 3 26 4 29 5 30 6 5 7 3 8 4 9 2 11 1 12 31 13 32 14
REMARK SMILES IDX 33 15 34 16 35 17 36 18 37 19 9 20 10 22 11 23 25 24 12 25
REMARK SMILES IDX 14 26 13 27 15 28 16 29 24 30 17 31 23 32 19 33 22 34 20 35
REMARK SMILES IDX 21 36 18 37 27 38 28 39
REMARK H PARENT 5 10 9 21
ROOT
ATOM      1  C   UNL     1      -2.166 -48.619  23.665  1.00  0.00     0.067 A 
ATOM      2  C   UNL     1      -1.112 -49.526  23.508  1.00  0.00     0.058 A 
ATOM      3  C   UNL     1      -0.666 -50.311  24.582  1.00  0.00     0.086 A 
ATOM      4  C   UNL     1      -1.302 -50.167  25.837  1.00  0.00     0.144 A 
ATOM      5  C   UNL     1      -2.354 -49.261  26.000  1.00  0.00     0.076 A 
ATOM      6  C   UNL     1      -2.794 -48.473  24.924  1.00  0.00     0.064 A 
ENDROOT
BRANCH   1   7
ATOM      7  N   UNL     1      -2.657 -47.798  22.626  1.00  0.00    -0.321 N 
ATOM      8  C   UNL     1      -1.947 -47.048  21.725  1.00  0.00     0.247 C 
ATOM      9  O   UNL     1      -0.734 -47.014  21.563  1.00  0.00    -0.270 OA
ATOM     10  H   UNL     1      -3.668 -47.845  22.540  1.00  0.00     0.170 HD
BRANCH   8  11
ATOM     11  C   UNL     1      -2.797 -46.250  20.801  1.00  0.00     0.064 C 
ATOM     12  C   UNL     1      -2.930 -46.505  19.493  1.00  0.00     0.014 C 
ENDBRANCH   8  11
ENDBRANCH   1   7
BRANCH   6  13
ATOM     13  N   UNL     1      -3.887 -47.554  25.053  1.00  0.00    -0.372 N 
ATOM     14  C   UNL     1      -5.154 -48.294  25.136  1.00  0.00     0.143 C 
BRANCH  13  15
ATOM     15  C   UNL     1      -3.674 -46.573  26.150  1.00  0.00     0.131 C 
BRANCH  15  16
ATOM     16  C   UNL     1      -2.819 -45.370  25.674  1.00  0.00     0.105 C 
BRANCH  16  17
ATOM     17  N   UNL     1      -2.951 -44.925  24.270  1.00  0.00    -0.308 NA
ATOM     18  C   UNL     1      -4.175 -44.173  24.017  1.00  0.00     0.105 C 
ATOM     19  C   UNL     1      -1.781 -44.175  23.817  1.00  0.00     0.105 C 
ENDBRANCH  16  17
ENDBRANCH  15  16
ENDBRANCH  13  15
ENDBRANCH   6  13
BRANCH   3  20
ATOM     20  N   UNL     1       0.396 -51.228  24.487  1.00  0.00    -0.321 N 
ATOM     21  H   UNL     1       1.022 -51.227  25.282  1.00  0.00     0.170 HD
BRANCH  20  22
ATOM     22  C   UNL     1       0.772 -52.206  23.578  1.00  0.00     0.227 A 
ATOM     23  N   UNL     1       1.009 -53.467  23.959  1.00  0.00    -0.221 NA
ATOM     24  N   UNL     1       0.872 -51.795  22.305  1.00  0.00    -0.213 NA
ATOM     25  C   UNL     1       1.372 -54.349  23.014  1.00  0.00     0.117 A 
ATOM     26  C   UNL     1       1.254 -52.706  21.384  1.00  0.00     0.078 A 
ATOM     27  C   UNL     1       1.513 -54.021  21.692  1.00  0.00     0.049 A 
BRANCH  26  28
ATOM     28  C   UNL     1       1.359 -52.223  20.014  1.00  0.00     0.026 A 
ATOM     29  C   UNL     1       2.177 -52.827  19.077  1.00  0.00     0.096 A 
ATOM     30  C   UNL     1       0.713 -51.123  19.356  1.00  0.00     0.009 A 
ATOM     31  N   UNL     1       2.075 -52.134  17.904  1.00  0.00    -0.350 N 
ATOM     32  C   UNL     1      -0.246 -50.162  19.747  1.00  0.00     0.011 A 
ATOM     33  C   UNL     1       1.193 -51.084  18.042  1.00  0.00     0.048 A 
ATOM     34  C   UNL     1      -0.675 -49.192  18.834  1.00  0.00     0.001 A 
ATOM     35  C   UNL     1       0.770 -50.112  17.119  1.00  0.00     0.027 A 
ATOM     36  C   UNL     1      -0.168 -49.167  17.539  1.00  0.00     0.002 A 
ATOM     37  C   UNL     1       2.787 -52.466  16.689  1.00  0.00     0.149 C 
ENDBRANCH  26  28
ENDBRANCH  20  22
ENDBRANCH   3  20
BRANCH   4  38
ATOM     38  O   UNL     1      -0.805 -50.977  26.837  1.00  0.00    -0.494 OA
ATOM     39  C   UNL     1      -1.666 -51.981  27.355  1.00  0.00     0.278 C 
ENDBRANCH   4  38
TORSDOF 10
ENDMDL
MODEL 5
REMARK VINA RESULT:      -6.8      2.247      6.751
REMARK SMILES C=CC(=O)Nc1cc(Nc2nccc(-c3cn(C)c4ccccc34)n2)c(OC)cc1N(C)CCN(C)C
REMARK SMILES IDX 6 1 7 2 8 3 26 4 29 5 30 6 5 7 3 8 4 9 2 11 1 12 31 13 32 14
REMARK SMILES IDX 33 15 34 16 35 17 36 18 37 19 9 20 10 22 11 23 25 24 12 25
REMARK SMILES IDX 14 26 13 27 15 28 16 29 24 30 17 31 23 32 19 33 22 34 20 35
REMARK SMILES IDX 21 36 18 37 27 38 28 39
REMARK H PARENT 5 10 9 21
ROOT
ATOM      1  C   UNL     1      -3.295 -50.328  24.258  1.00  0.00     0.067 A 
ATOM      2  C   UNL     1      -2.440 -51.343  23.812  1.00  0.00     0.058 A 
ATOM      3  C   UNL     1      -1.133 -51.459  24.308  1.00  0.00     0.086 A 
ATOM      4  C   UNL     1      -0.688 -50.523  25.271  1.00  0.00     0.144 A 
ATOM      5  C   UNL     1      -1.536 -49.506  25.718  1.00  0.00     0.076 A 
ATOM      6  C   UNL     1      -2.843 -49.391  25.215  1.00  0.00     0.064 A 
ENDROOT
BRANCH   1   7
ATOM      7  N   UNL     1      -4.617 -50.155  23.795  1.00  0.00    -0.321 N 
ATOM      8  C   UNL     1      -5.040 -49.713  22.567  1.00  0.00     0.247 C 
ATOM      9  O   UNL     1      -4.360 -49.474  21.578  1.00  0.00    -0.270 OA
ATOM     10  H   UNL     1      -5.309 -50.463  24.472  1.00  0.00     0.170 HD
BRANCH   8  11
ATOM     11  C   UNL     1      -6.518 -49.594  22.445  1.00  0.00     0.064 C 
ATOM     12  C   UNL     1      -7.170 -49.508  21.279  1.00  0.00     0.014 C 
ENDBRANCH   8  11
ENDBRANCH   1   7
BRANCH   6  13
ATOM     13  N   UNL     1      -3.745 -48.374  25.673  1.00  0.00    -0.372 N 
ATOM     14  C   UNL     1      -4.061 -48.591  27.092  1.00  0.00     0.143 C 
BRANCH  13  15
ATOM     15  C   UNL     1      -3.264 -47.005  25.351  1.00  0.00     0.131 C 
BRANCH  15  16
ATOM     16  C   UNL     1      -3.552 -46.639  23.872  1.00  0.00     0.105 C 
BRANCH  16  17
ATOM     17  N   UNL     1      -2.424 -46.196  23.025  1.00  0.00    -0.308 NA
ATOM     18  C   UNL     1      -1.505 -45.295  23.712  1.00  0.00     0.105 C 
ATOM     19  C   UNL     1      -1.700 -47.322  22.439  1.00  0.00     0.105 C 
ENDBRANCH  16  17
ENDBRANCH  15  16
ENDBRANCH  13  15
ENDBRANCH   6  13
BRANCH   3  20
ATOM     20  N   UNL     1      -0.227 -52.448  23.888  1.00  0.00    -0.321 N 
ATOM     21  H   UNL     1      -0.024 -53.152  24.586  1.00  0.00     0.170 HD
BRANCH  20  22
ATOM     22  C   UNL     1       0.428 -52.742  22.700  1.00  0.00     0.227 A 
ATOM     23  N   UNL     1       1.213 -53.819  22.578  1.00  0.00    -0.221 NA
ATOM     24  N   UNL     1       0.210 -51.877  21.699  1.00  0.00    -0.213 NA
ATOM     25  C   UNL     1       1.812 -54.026  21.394  1.00  0.00     0.117 A 
ATOM     26  C   UNL     1       0.840 -52.109  20.527  1.00  0.00     0.078 A 
ATOM     27  C   UNL     1       1.660 -53.193  20.318  1.00  0.00     0.049 A 
BRANCH  26  28
ATOM     28  C   UNL     1       0.585 -51.146  19.464  1.00  0.00     0.026 A 
ATOM     29  C   UNL     1      -0.122 -49.977  19.679  1.00  0.00     0.096 A 
ATOM     30  C   UNL     1       0.958 -51.159  18.079  1.00  0.00     0.009 A 
ATOM     31  N   UNL     1      -0.212 -49.303  18.494  1.00  0.00    -0.350 N 
ATOM     32  C   UNL     1       1.707 -52.038  17.264  1.00  0.00     0.011 A 
ATOM     33  C   UNL     1       0.433 -50.000  17.495  1.00  0.00     0.048 A 
ATOM     34  C   UNL     1       1.886 -51.750  15.906  1.00  0.00     0.001 A 
ATOM     35  C   UNL     1       0.606 -49.703  16.132  1.00  0.00     0.027 A 
ATOM     36  C   UNL     1       1.338 -50.599  15.349  1.00  0.00     0.002 A 
ATOM     37  C   UNL     1      -0.882 -48.033  18.320  1.00  0.00     0.149 C 
ENDBRANCH  26  28
ENDBRANCH  20  22
ENDBRANCH   3  20
BRANCH   4  38
ATOM     38  O   UNL     1       0.606 -50.710  25.708  1.00  0.00    -0.494 OA
ATOM     39  C   UNL     1       0.791 -51.408  26.931  1.00  0.00     0.278 C 
ENDBRANCH   4  38
TORSDOF 10
ENDMDL
MODEL 6
REMARK VINA RESULT:      -6.5      3.059      7.465
REMARK SMILES C=CC(=O)Nc1cc(Nc2nccc(-c3cn(C)c4ccccc34)n2)c(OC)cc1N(C)CCN(C)C
REMARK SMILES IDX 6 1 7 2 8 3 26 4 29 5 30 6 5 7 3 8 4 9 2 11 1 12 31 13 32 14
REMARK SMILES IDX 33 15 34 16 35 17 36 18 37 19 9 20 10 22 11 23 25 24 12 25
REMARK SMILES IDX 14 26 13 27 15 28 16 29 24 30 17 31 23 32 19 33 22 34 20 35
REMARK SMILES IDX 21 36 18 37 27 38 28 39
REMARK H PARENT 5 10 9 21
ROOT
ATOM      1  C   UNL     1      -2.700 -50.061  24.538  1.00  0.00     0.067 A 
ATOM      2  C   UNL     1      -1.670 -50.347  23.635  1.00  0.00     0.058 A 
ATOM      3  C   UNL     1      -0.383 -50.675  24.084  1.00  0.00     0.086 A 
ATOM      4  C   UNL     1      -0.139 -50.710  25.477  1.00  0.00     0.144 A 
ATOM      5  C   UNL     1      -1.163 -50.423  26.384  1.00  0.00     0.076 A 
ATOM      6  C   UNL     1      -2.450 -50.089  25.929  1.00  0.00     0.064 A 
ENDROOT
BRANCH   1   7
ATOM      7  N   UNL     1      -4.013 -49.719  24.149  1.00  0.00    -0.321 N 
ATOM      8  C   UNL     1      -4.978 -50.527  23.603  1.00  0.00     0.247 C 
ATOM      9  O   UNL     1      -4.939 -51.739  23.435  1.00  0.00    -0.270 OA
ATOM     10  H   UNL     1      -4.246 -48.756  24.372  1.00  0.00     0.170 HD
BRANCH   8  11
ATOM     11  C   UNL     1      -6.237 -49.813  23.256  1.00  0.00     0.064 C 
ATOM     12  C   UNL     1      -6.288 -48.694  22.524  1.00  0.00     0.014 C 
ENDBRANCH   8  11
ENDBRANCH   1   7
BRANCH   6  13
ATOM     13  N   UNL     1      -3.527 -49.815  26.835  1.00  0.00    -0.372 N 
ATOM     14  C   UNL     1      -3.519 -50.796  27.930  1.00  0.00     0.143 C 
BRANCH  13  15
ATOM     15  C   UNL     1      -3.546 -48.397  27.279  1.00  0.00     0.131 C 
BRANCH  15  16
ATOM     16  C   UNL     1      -3.937 -48.278  28.775  1.00  0.00     0.105 C 
BRANCH  16  17
ATOM     17  N   UNL     1      -3.684 -46.997  29.469  1.00  0.00    -0.308 NA
ATOM     18  C   UNL     1      -3.160 -47.167  30.820  1.00  0.00     0.105 C 
ATOM     19  C   UNL     1      -2.824 -46.109  28.690  1.00  0.00     0.105 C 
ENDBRANCH  16  17
ENDBRANCH  15  16
ENDBRANCH  13  15
ENDBRANCH   6  13
BRANCH   3  20
ATOM     20  N   UNL     1       0.693 -50.959  23.224  1.00  0.00    -0.321 N 
ATOM     21  H   UNL     1       1.530 -50.422  23.411  1.00  0.00     0.170 HD
BRANCH  20  22
ATOM     22  C   UNL     1       0.918 -51.862  22.195  1.00  0.00     0.227 A 
ATOM     23  N   UNL     1       1.098 -53.167  22.431  1.00  0.00    -0.221 NA
ATOM     24  N   UNL     1       0.934 -51.333  20.963  1.00  0.00    -0.213 NA
ATOM     25  C   UNL     1       1.313 -53.970  21.378  1.00  0.00     0.117 A 
ATOM     26  C   UNL     1       1.168 -52.168  19.928  1.00  0.00     0.078 A 
ATOM     27  C   UNL     1       1.359 -53.521  20.085  1.00  0.00     0.049 A 
BRANCH  26  28
ATOM     28  C   UNL     1       1.185 -51.557  18.606  1.00  0.00     0.026 A 
ATOM     29  C   UNL     1       1.884 -52.107  17.546  1.00  0.00     0.096 A 
ATOM     30  C   UNL     1       0.554 -50.366  18.116  1.00  0.00     0.009 A 
ATOM     31  N   UNL     1       1.725 -51.296  16.458  1.00  0.00    -0.350 N 
ATOM     32  C   UNL     1      -0.309 -49.400  18.680  1.00  0.00     0.011 A 
ATOM     33  C   UNL     1       0.922 -50.221  16.773  1.00  0.00     0.048 A 
ATOM     34  C   UNL     1      -0.754 -48.322  17.906  1.00  0.00     0.001 A 
ATOM     35  C   UNL     1       0.483 -49.142  15.988  1.00  0.00     0.027 A 
ATOM     36  C   UNL     1      -0.358 -48.195  16.578  1.00  0.00     0.002 A 
ATOM     37  C   UNL     1       2.310 -51.542  15.158  1.00  0.00     0.149 C 
ENDBRANCH  26  28
ENDBRANCH  20  22
ENDBRANCH   3  20
BRANCH   4  38
ATOM     38  O   UNL     1       1.150 -51.044  25.834  1.00  0.00    -0.494 OA
ATOM     39  C   UNL     1       1.332 -51.737  27.061  1.00  0.00     0.278 C 
ENDBRANCH   4  38
TORSDOF 10
ENDMDL
MODEL 7
REMARK VINA RESULT:      -6.5      5.824      9.064
REMARK SMILES C=CC(=O)Nc1cc(Nc2nccc(-c3cn(C)c4ccccc34)n2)c(OC)cc1N(C)CCN(C)C
REMARK SMILES IDX 6 1 7 2 8 3 26 4 29 5 30 6 5 7 3 8 4 9 2 11 1 12 31 13 32 14
REMARK SMILES IDX 33 15 34 16 35 17 36 18 37 19 9 20 10 22 11 23 25 24 12 25
REMARK SMILES IDX 14 26 13 27 15 28 16 29 24 30 17 31 23 32 19 33 22 34 20 35
REMARK SMILES IDX 21 36 18 37 27 38 28 39
REMARK H PARENT 5 10 9 21
ROOT
ATOM      1  C   UNL     1      -1.292 -51.579  11.567  1.00  0.00     0.067 A 
ATOM      2  C   UNL     1      -0.360 -51.216  12.547  1.00  0.00     0.058 A 
ATOM      3  C   UNL     1      -0.774 -50.747  13.802  1.00  0.00     0.086 A 
ATOM      4  C   UNL     1      -2.160 -50.642  14.063  1.00  0.00     0.144 A 
ATOM      5  C   UNL     1      -3.095 -51.001  13.088  1.00  0.00     0.076 A 
ATOM      6  C   UNL     1      -2.676 -51.465  11.830  1.00  0.00     0.064 A 
ENDROOT
BRANCH   1   7
ATOM      7  N   UNL     1      -0.939 -52.053  10.285  1.00  0.00    -0.321 N 
ATOM      8  C   UNL     1      -0.184 -53.151   9.959  1.00  0.00     0.247 C 
ATOM      9  O   UNL     1       0.256 -54.011  10.710  1.00  0.00    -0.270 OA
ATOM     10  H   UNL     1      -1.368 -51.511   9.540  1.00  0.00     0.170 HD
BRANCH   8  11
ATOM     11  C   UNL     1       0.040 -53.317   8.498  1.00  0.00     0.064 C 
ATOM     12  C   UNL     1      -0.599 -54.213   7.737  1.00  0.00     0.014 C 
ENDBRANCH   8  11
ENDBRANCH   1   7
BRANCH   6  13
ATOM     13  N   UNL     1      -3.611 -51.865  10.819  1.00  0.00    -0.372 N 
ATOM     14  C   UNL     1      -4.156 -53.192  11.140  1.00  0.00     0.143 C 
BRANCH  13  15
ATOM     15  C   UNL     1      -4.640 -50.825  10.556  1.00  0.00     0.131 C 
BRANCH  15  16
ATOM     16  C   UNL     1      -4.704 -50.462   9.049  1.00  0.00     0.105 C 
BRANCH  16  17
ATOM     17  N   UNL     1      -4.791 -51.561   8.064  1.00  0.00    -0.308 NA
ATOM     18  C   UNL     1      -6.142 -52.087   7.905  1.00  0.00     0.105 C 
ATOM     19  C   UNL     1      -4.227 -51.186   6.769  1.00  0.00     0.105 C 
ENDBRANCH  16  17
ENDBRANCH  15  16
ENDBRANCH  13  15
ENDBRANCH   6  13
BRANCH   3  20
ATOM     20  N   UNL     1       0.115 -50.356  14.819  1.00  0.00    -0.321 N 
ATOM     21  H   UNL     1       0.156 -49.357  14.976  1.00  0.00     0.170 HD
BRANCH  20  22
ATOM     22  C   UNL     1       0.924 -51.022  15.727  1.00  0.00     0.227 A 
ATOM     23  N   UNL     1       1.982 -51.741  15.331  1.00  0.00    -0.221 NA
ATOM     24  N   UNL     1       0.572 -50.888  17.013  1.00  0.00    -0.213 NA
ATOM     25  C   UNL     1       2.710 -52.357  16.276  1.00  0.00     0.117 A 
ATOM     26  C   UNL     1       1.318 -51.534  17.935  1.00  0.00     0.078 A 
ATOM     27  C   UNL     1       2.421 -52.288  17.613  1.00  0.00     0.049 A 
BRANCH  26  28
ATOM     28  C   UNL     1       0.901 -51.370  19.322  1.00  0.00     0.026 A 
ATOM     29  C   UNL     1       0.264 -50.228  19.773  1.00  0.00     0.096 A 
ATOM     30  C   UNL     1       1.029 -52.249  20.449  1.00  0.00     0.009 A 
ATOM     31  N   UNL     1       0.026 -50.367  21.111  1.00  0.00    -0.350 N 
ATOM     32  C   UNL     1       1.542 -53.552  20.634  1.00  0.00     0.011 A 
ATOM     33  C   UNL     1       0.486 -51.587  21.557  1.00  0.00     0.048 A 
ATOM     34  C   UNL     1       1.518 -54.139  21.904  1.00  0.00     0.001 A 
ATOM     35  C   UNL     1       0.459 -52.167  22.836  1.00  0.00     0.027 A 
ATOM     36  C   UNL     1       0.987 -53.451  22.990  1.00  0.00     0.002 A 
ATOM     37  C   UNL     1      -0.626 -49.374  21.936  1.00  0.00     0.149 C 
ENDBRANCH  26  28
ENDBRANCH  20  22
ENDBRANCH   3  20
BRANCH   4  38
ATOM     38  O   UNL     1      -2.482 -50.176  15.320  1.00  0.00    -0.494 OA
ATOM     39  C   UNL     1      -3.855 -49.945  15.602  1.00  0.00     0.278 C 
ENDBRANCH   4  38
TORSDOF 10
ENDMDL
MODEL 8
REMARK VINA RESULT:      -6.5      2.218      6.286
REMARK SMILES C=CC(=O)Nc1cc(Nc2nccc(-c3cn(C)c4ccccc34)n2)c(OC)cc1N(C)CCN(C)C
REMARK SMILES IDX 6 1 7 2 8 3 26 4 29 5 30 6 5 7 3 8 4 9 2 11 1 12 31 13 32 14
REMARK SMILES IDX 33 15 34 16 35 17 36 18 37 19 9 20 10 22 11 23 25 24 12 25
REMARK SMILES IDX 14 26 13 27 15 28 16 29 24 30 17 31 23 32 19 33 22 34 20 35
REMARK SMILES IDX 21 36 18 37 27 38 28 39
REMARK H PARENT 5 10 9 21
ROOT
ATOM      1  C   UNL     1      -2.952 -49.372  22.593  1.00  0.00     0.067 A 
ATOM      2  C   UNL     1      -2.172 -50.516  22.390  1.00  0.00     0.058 A 
ATOM      3  C   UNL     1      -1.395 -51.056  23.425  1.00  0.00     0.086 A 
ATOM      4  C   UNL     1      -1.411 -50.418  24.688  1.00  0.00     0.144 A 
ATOM      5  C   UNL     1      -2.186 -49.274  24.895  1.00  0.00     0.076 A 
ATOM      6  C   UNL     1      -2.959 -48.733  23.854  1.00  0.00     0.064 A 
ENDROOT
BRANCH   1   7
ATOM      7  N   UNL     1      -3.751 -48.779  21.591  1.00  0.00    -0.321 N 
ATOM      8  C   UNL     1      -4.884 -49.275  20.998  1.00  0.00     0.247 C 
ATOM      9  O   UNL     1      -5.501 -50.291  21.287  1.00  0.00    -0.270 OA
ATOM     10  H   UNL     1      -3.439 -47.843  21.350  1.00  0.00     0.170 HD
BRANCH   8  11
ATOM     11  C   UNL     1      -5.437 -48.401  19.928  1.00  0.00     0.064 C 
ATOM     12  C   UNL     1      -4.699 -47.837  18.964  1.00  0.00     0.014 C 
ENDBRANCH   8  11
ENDBRANCH   1   7
BRANCH   6  13
ATOM     13  N   UNL     1      -3.785 -47.577  24.043  1.00  0.00    -0.372 N 
ATOM     14  C   UNL     1      -4.862 -47.884  24.995  1.00  0.00     0.143 C 
BRANCH  13  15
ATOM     15  C   UNL     1      -2.992 -46.365  24.380  1.00  0.00     0.131 C 
BRANCH  15  16
ATOM     16  C   UNL     1      -2.931 -45.380  23.184  1.00  0.00     0.105 C 
BRANCH  16  17
ATOM     17  N   UNL     1      -2.551 -45.908  21.856  1.00  0.00    -0.308 NA
ATOM     18  C   UNL     1      -2.962 -45.046  20.753  1.00  0.00     0.105 C 
ATOM     19  C   UNL     1      -1.124 -46.210  21.771  1.00  0.00     0.105 C 
ENDBRANCH  16  17
ENDBRANCH  15  16
ENDBRANCH  13  15
ENDBRANCH   6  13
BRANCH   3  20
ATOM     20  N   UNL     1      -0.582 -52.194  23.277  1.00  0.00    -0.321 N 
ATOM     21  H   UNL     1      -0.708 -52.894  23.996  1.00  0.00     0.170 HD
BRANCH  20  22
ATOM     22  C   UNL     1       0.329 -52.634  22.327  1.00  0.00     0.227 A 
ATOM     23  N   UNL     1       1.183 -53.632  22.582  1.00  0.00    -0.221 NA
ATOM     24  N   UNL     1       0.283 -51.993  21.150  1.00  0.00    -0.213 NA
ATOM     25  C   UNL     1       2.034 -53.993  21.608  1.00  0.00     0.117 A 
ATOM     26  C   UNL     1       1.163 -52.373  20.199  1.00  0.00     0.078 A 
ATOM     27  C   UNL     1       2.070 -53.390  20.379  1.00  0.00     0.049 A 
BRANCH  26  28
ATOM     28  C   UNL     1       1.088 -51.651  18.936  1.00  0.00     0.026 A 
ATOM     29  C   UNL     1       1.694 -52.113  17.782  1.00  0.00     0.096 A 
ATOM     30  C   UNL     1       0.439 -50.416  18.599  1.00  0.00     0.009 A 
ATOM     31  N   UNL     1       1.465 -51.211  16.782  1.00  0.00    -0.350 N 
ATOM     32  C   UNL     1      -0.364 -49.495  19.309  1.00  0.00     0.011 A 
ATOM     33  C   UNL     1       0.705 -50.160  17.249  1.00  0.00     0.048 A 
ATOM     34  C   UNL     1      -0.850 -48.352  18.665  1.00  0.00     0.001 A 
ATOM     35  C   UNL     1       0.223 -49.014  16.595  1.00  0.00     0.027 A 
ATOM     36  C   UNL     1      -0.555 -48.114  17.327  1.00  0.00     0.002 A 
ATOM     37  C   UNL     1       1.945 -51.350  15.425  1.00  0.00     0.149 C 
ENDBRANCH  26  28
ENDBRANCH  20  22
ENDBRANCH   3  20
BRANCH   4  38
ATOM     38  O   UNL     1      -0.623 -51.013  25.650  1.00  0.00    -0.494 OA
ATOM     39  C   UNL     1      -1.270 -51.508  26.813  1.00  0.00     0.278 C 
ENDBRANCH   4  38
TORSDOF 10
ENDMDL
MODEL 9
REMARK VINA RESULT:      -6.4      2.088      2.513
REMARK SMILES C=CC(=O)Nc1cc(Nc2nccc(-c3cn(C)c4ccccc34)n2)c(OC)cc1N(C)CCN(C)C
REMARK SMILES IDX 6 1 7 2 8 3 26 4 29 5 30 6 5 7 3 8 4 9 2 11 1 12 31 13 32 14
REMARK SMILES IDX 33 15 34 16 35 17 36 18 37 19 9 20 10 22 11 23 25 24 12 25
REMARK SMILES IDX 14 26 13 27 15 28 16 29 24 30 17 31 23 32 19 33 22 34 20 35
REMARK SMILES IDX 21 36 18 37 27 38 28 39
REMARK H PARENT 5 10 9 21
ROOT
ATOM      1  C   UNL     1      -1.982 -46.247  22.116  1.00  0.00     0.067 A 
ATOM      2  C   UNL     1      -1.017 -47.206  21.787  1.00  0.00     0.058 A 
ATOM      3  C   UNL     1      -0.861 -47.653  20.467  1.00  0.00     0.086 A 
ATOM      4  C   UNL     1      -1.704 -47.118  19.465  1.00  0.00     0.144 A 
ATOM      5  C   UNL     1      -2.671 -46.162  19.789  1.00  0.00     0.076 A 
ATOM      6  C   UNL     1      -2.828 -45.720  21.113  1.00  0.00     0.064 A 
ENDROOT
BRANCH   1   7
ATOM      7  N   UNL     1      -2.191 -45.760  23.425  1.00  0.00    -0.321 N 
ATOM      8  C   UNL     1      -1.315 -45.081  24.232  1.00  0.00     0.247 C 
ATOM      9  O   UNL     1      -0.201 -44.660  23.948  1.00  0.00    -0.270 OA
ATOM     10  H   UNL     1      -3.143 -45.908  23.746  1.00  0.00     0.170 HD
BRANCH   8  11
ATOM     11  C   UNL     1      -1.854 -44.773  25.584  1.00  0.00     0.064 C 
ATOM     12  C   UNL     1      -2.673 -45.582  26.267  1.00  0.00     0.014 C 
ENDBRANCH   8  11
ENDBRANCH   1   7
BRANCH   6  13
ATOM     13  N   UNL     1      -3.793 -44.722  21.471  1.00  0.00    -0.372 N 
ATOM     14  C   UNL     1      -3.790 -43.645  20.471  1.00  0.00     0.143 C 
BRANCH  13  15
ATOM     15  C   UNL     1      -5.133 -45.304  21.747  1.00  0.00     0.131 C 
BRANCH  15  16
ATOM     16  C   UNL     1      -5.463 -45.269  23.262  1.00  0.00     0.105 C 
BRANCH  16  17
ATOM     17  N   UNL     1      -5.406 -46.535  24.024  1.00  0.00    -0.308 NA
ATOM     18  C   UNL     1      -6.548 -46.727  24.910  1.00  0.00     0.105 C 
ATOM     19  C   UNL     1      -5.227 -47.695  23.153  1.00  0.00     0.105 C 
ENDBRANCH  16  17
ENDBRANCH  15  16
ENDBRANCH  13  15
ENDBRANCH   6  13
BRANCH   3  20
ATOM     20  N   UNL     1       0.081 -48.623  20.080  1.00  0.00    -0.321 N 
ATOM     21  H   UNL     1       0.792 -48.284  19.444  1.00  0.00     0.170 HD
BRANCH  20  22
ATOM     22  C   UNL     1       0.321 -49.948  20.412  1.00  0.00     0.227 A 
ATOM     23  N   UNL     1       0.941 -50.783  19.570  1.00  0.00    -0.221 NA
ATOM     24  N   UNL     1      -0.106 -50.319  21.628  1.00  0.00    -0.213 NA
ATOM     25  C   UNL     1       1.130 -52.051  19.970  1.00  0.00     0.117 A 
ATOM     26  C   UNL     1       0.087 -51.606  21.991  1.00  0.00     0.078 A 
ATOM     27  C   UNL     1       0.718 -52.525  21.187  1.00  0.00     0.049 A 
BRANCH  26  28
ATOM     28  C   UNL     1      -0.395 -51.974  23.315  1.00  0.00     0.026 A 
ATOM     29  C   UNL     1       0.407 -52.613  24.243  1.00  0.00     0.096 A 
ATOM     30  C   UNL     1      -1.679 -51.790  23.930  1.00  0.00     0.009 A 
ATOM     31  N   UNL     1      -0.334 -52.843  25.368  1.00  0.00    -0.350 N 
ATOM     32  C   UNL     1      -2.890 -51.183  23.528  1.00  0.00     0.011 A 
ATOM     33  C   UNL     1      -1.614 -52.357  25.208  1.00  0.00     0.048 A 
ATOM     34  C   UNL     1      -3.990 -51.180  24.393  1.00  0.00     0.001 A 
ATOM     35  C   UNL     1      -2.714 -52.361  26.082  1.00  0.00     0.027 A 
ATOM     36  C   UNL     1      -3.901 -51.765  25.651  1.00  0.00     0.002 A 
ATOM     37  C   UNL     1       0.163 -53.494  26.560  1.00  0.00     0.149 C 
ENDBRANCH  26  28
ENDBRANCH  20  22
ENDBRANCH   3  20
BRANCH   4  38
ATOM     38  O   UNL     1      -1.484 -47.608  18.196  1.00  0.00    -0.494 OA
ATOM     39  C   UNL     1      -2.552 -48.301  17.567  1.00  0.00     0.278 C 
ENDBRANCH   4  38
TORSDOF 10
ENDMDL
