MODEL 1
REMARK VINA RESULT:      -7.6      0.000      0.000
REMARK SMILES C=CC(=O)Nc1cc(Nc2nccc(-c3cn(C)c4ccccc34)n2)c(OC)cc1N(C)CCN(C)C
REMARK SMILES IDX 6 1 7 2 8 3 26 4 29 5 30 6 5 7 3 8 4 9 2 11 1 12 31 13 32 14
REMARK SMILES IDX 33 15 34 16 35 17 36 18 37 19 9 20 10 22 11 23 25 24 12 25
REMARK SMILES IDX 14 26 13 27 15 28 16 29 24 30 17 31 23 32 19 33 22 34 20 35
REMARK SMILES IDX 21 36 18 37 27 38 28 39
REMARK H PARENT 5 10 9 21
ROOT
ATOM      1  C   UNL     1       0.016 -50.493  16.405  1.00  0.00     0.067 A 
ATOM      2  C   UNL     1       0.433 -51.219  17.526  1.00  0.00     0.058 A 
ATOM      3  C   UNL     1       1.612 -51.978  17.500  1.00  0.00     0.086 A 
ATOM      4  C   UNL     1       2.377 -52.002  16.311  1.00  0.00     0.144 A 
ATOM      5  C   UNL     1       1.963 -51.281  15.187  1.00  0.00     0.076 A 
ATOM      6  C   UNL     1       0.778 -50.526  15.216  1.00  0.00     0.064 A 
ENDROOT
BRANCH   1   7
ATOM      7  N   UNL     1      -1.162 -49.715  16.367  1.00  0.00    -0.321 N 
ATOM      8  C   UNL     1      -2.338 -49.914  17.045  1.00  0.00     0.247 C 
ATOM      9  O   UNL     1      -2.578 -50.750  17.906  1.00  0.00    -0.270 OA
ATOM     10  H   UNL     1      -1.059 -48.883  15.794  1.00  0.00     0.170 HD
BRANCH   8  11
ATOM     11  C   UNL     1      -3.399 -48.925  16.715  1.00  0.00     0.064 C 
ATOM     12  C   UNL     1      -3.918 -48.059  17.594  1.00  0.00     0.014 C 
ENDBRANCH   8  11
ENDBRANCH   1   7
BRANCH   6  13
ATOM     13  N   UNL     1       0.342 -49.756  14.088  1.00  0.00    -0.372 N 
ATOM     14  C   UNL     1       1.373 -48.772  13.727  1.00  0.00     0.143 C 
BRANCH  13  15
ATOM     15  C   UNL     1      -0.114 -50.611  12.961  1.00  0.00     0.131 C 
BRANCH  15  16
ATOM     16  C   UNL     1      -1.501 -50.160  12.435  1.00  0.00     0.105 C 
BRANCH  16  17
ATOM     17  N   UNL     1      -2.606 -50.006  13.406  1.00  0.00    -0.308 NA
ATOM     18  C   UNL     1      -3.586 -49.001  13.010  1.00  0.00     0.105 C 
ATOM     19  C   UNL     1      -3.262 -51.278  13.700  1.00  0.00     0.105 C 
ENDBRANCH  16  17
ENDBRANCH  15  16
ENDBRANCH  13  15
ENDBRANCH   6  13
BRANCH   3  20
ATOM     20  N   UNL     1       2.074 -52.737  18.591  1.00  0.00    -0.321 N 
ATOM     21  H   UNL     1       2.902 -53.284  18.397  1.00  0.00     0.170 HD
BRANCH  20  22
ATOM     22  C   UNL     1       1.702 -52.875  19.920  1.00  0.00     0.227 A 
ATOM     23  N   UNL     1       2.029 -53.960  20.633  1.00  0.00    -0.221 NA
ATOM     24  N   UNL     1       1.005 -51.849  20.428  1.00  0.00    -0.213 NA
ATOM     25  C   UNL     1       1.625 -54.014  21.912  1.00  0.00     0.117 A 
ATOM     26  C   UNL     1       0.603 -51.944  21.714  1.00  0.00     0.078 A 
ATOM     27  C   UNL     1       0.899 -53.021  22.515  1.00  0.00     0.049 A 
BRANCH  26  28
ATOM     28  C   UNL     1      -0.157 -50.813  22.230  1.00  0.00     0.026 A 
ATOM     29  C   UNL     1      -0.809 -50.855  23.450  1.00  0.00     0.096 A 
ATOM     30  C   UNL     1      -0.399 -49.513  21.673  1.00  0.00     0.009 A 
ATOM     31  N   UNL     1      -1.446 -49.662  23.640  1.00  0.00    -0.350 N 
ATOM     32  C   UNL     1       0.013 -48.850  20.496  1.00  0.00     0.011 A 
ATOM     33  C   UNL     1      -1.221 -48.821  22.571  1.00  0.00     0.048 A 
ATOM     34  C   UNL     1      -0.418 -47.543  20.243  1.00  0.00     0.001 A 
ATOM     35  C   UNL     1      -1.661 -47.510  22.325  1.00  0.00     0.027 A 
ATOM     36  C   UNL     1      -1.248 -46.886  21.145  1.00  0.00     0.002 A 
ATOM     37  C   UNL     1      -2.236 -49.329  24.805  1.00  0.00     0.149 C 
ENDBRANCH  26  28
ENDBRANCH  20  22
ENDBRANCH   3  20
BRANCH   4  38
ATOM     38  O   UNL     1       3.521 -52.769  16.370  1.00  0.00    -0.494 OA
ATOM     39  C   UNL     1       4.585 -52.428  15.492  1.00  0.00     0.278 C 
ENDBRANCH   4  38
TORSDOF 10
ENDMDL
MODEL 2
REMARK VINA RESULT:      -7.6      2.993      5.597
REMARK SMILES C=CC(=O)Nc1cc(Nc2nccc(-c3cn(C)c4ccccc34)n2)c(OC)cc1N(C)CCN(C)C
REMARK SMILES IDX 6 1 7 2 8 3 26 4 29 5 30 6 5 7 3 8 4 9 2 11 1 12 31 13 32 14
REMARK SMILES IDX 33 15 34 16 35 17 36 18 37 19 9 20 10 22 11 23 25 24 12 25
REMARK SMILES IDX 14 26 13 27 15 28 16 29 24 30 17 31 23 32 19 33 22 34 20 35
REMARK SMILES IDX 21 36 18 37 27 38 28 39
REMARK H PARENT 5 10 9 21
ROOT
ATOM      1  C   UNL     1      -1.020 -47.471  20.472  1.00  0.00     0.067 A 
ATOM      2  C   UNL     1      -0.065 -48.480  20.636  1.00  0.00     0.058 A 
ATOM      3  C   UNL     1       0.021 -49.549  19.733  1.00  0.00     0.086 A 
ATOM      4  C   UNL     1      -0.883 -49.593  18.646  1.00  0.00     0.144 A 
ATOM      5  C   UNL     1      -1.841 -48.588  18.479  1.00  0.00     0.076 A 
ATOM      6  C   UNL     1      -1.927 -47.522  19.389  1.00  0.00     0.064 A 
ENDROOT
BRANCH   1   7
ATOM      7  N   UNL     1      -1.161 -46.373  21.349  1.00  0.00    -0.321 N 
ATOM      8  C   UNL     1      -1.700 -46.352  22.610  1.00  0.00     0.247 C 
ATOM      9  O   UNL     1      -2.077 -47.302  23.283  1.00  0.00    -0.270 OA
ATOM     10  H   UNL     1      -0.746 -45.524  20.977  1.00  0.00     0.170 HD
BRANCH   8  11
ATOM     11  C   UNL     1      -1.743 -44.998  23.226  1.00  0.00     0.064 C 
ATOM     12  C   UNL     1      -0.884 -44.570  24.159  1.00  0.00     0.014 C 
ENDBRANCH   8  11
ENDBRANCH   1   7
BRANCH   6  13
ATOM     13  N   UNL     1      -2.881 -46.464  19.230  1.00  0.00    -0.372 N 
ATOM     14  C   UNL     1      -2.509 -45.626  18.081  1.00  0.00     0.143 C 
BRANCH  13  15
ATOM     15  C   UNL     1      -4.280 -46.964  19.199  1.00  0.00     0.131 C 
BRANCH  15  16
ATOM     16  C   UNL     1      -4.652 -47.684  20.522  1.00  0.00     0.105 C 
BRANCH  16  17
ATOM     17  N   UNL     1      -4.999 -49.120  20.469  1.00  0.00    -0.308 NA
ATOM     18  C   UNL     1      -4.071 -49.966  21.211  1.00  0.00     0.105 C 
ATOM     19  C   UNL     1      -6.376 -49.370  20.891  1.00  0.00     0.105 C 
ENDBRANCH  16  17
ENDBRANCH  15  16
ENDBRANCH  13  15
ENDBRANCH   6  13
BRANCH   3  20
ATOM     20  N   UNL     1       0.951 -50.598  19.854  1.00  0.00    -0.321 N 
ATOM     21  H   UNL     1       1.753 -50.517  19.243  1.00  0.00     0.170 HD
BRANCH  20  22
ATOM     22  C   UNL     1       1.074 -51.713  20.670  1.00  0.00     0.227 A 
ATOM     23  N   UNL     1       1.627 -52.849  20.230  1.00  0.00    -0.221 NA
ATOM     24  N   UNL     1       0.608 -51.562  21.918  1.00  0.00    -0.213 NA
ATOM     25  C   UNL     1       1.703 -53.881  21.085  1.00  0.00     0.117 A 
ATOM     26  C   UNL     1       0.688 -52.625  22.747  1.00  0.00     0.078 A 
ATOM     27  C   UNL     1       1.244 -53.826  22.374  1.00  0.00     0.049 A 
BRANCH  26  28
ATOM     28  C   UNL     1       0.166 -52.426  24.093  1.00  0.00     0.026 A 
ATOM     29  C   UNL     1       0.982 -52.423  25.209  1.00  0.00     0.096 A 
ATOM     30  C   UNL     1      -1.174 -52.206  24.555  1.00  0.00     0.009 A 
ATOM     31  N   UNL     1       0.200 -52.239  26.315  1.00  0.00    -0.350 N 
ATOM     32  C   UNL     1      -2.429 -52.067  23.921  1.00  0.00     0.011 A 
ATOM     33  C   UNL     1      -1.123 -52.108  25.951  1.00  0.00     0.048 A 
ATOM     34  C   UNL     1      -3.580 -51.858  24.688  1.00  0.00     0.001 A 
ATOM     35  C   UNL     1      -2.273 -51.901  26.730  1.00  0.00     0.027 A 
ATOM     36  C   UNL     1      -3.501 -51.781  26.074  1.00  0.00     0.002 A 
ATOM     37  C   UNL     1       0.697 -52.179  27.671  1.00  0.00     0.149 C 
ENDBRANCH  26  28
ENDBRANCH  20  22
ENDBRANCH   3  20
BRANCH   4  38
ATOM     38  O   UNL     1      -0.729 -50.674  17.804  1.00  0.00    -0.494 OA
ATOM     39  C   UNL     1      -0.393 -50.407  16.450  1.00  0.00     0.278 C 
ENDBRANCH   4  38
TORSDOF 10
ENDMDL
MODEL 3
REMARK VINA RESULT:      -7.4      5.223      9.074
REMARK SMILES C=CC(=O)Nc1cc(Nc2nccc(-c3cn(C)c4ccccc34)n2)c(OC)cc1N(C)CCN(C)C
REMARK SMILES IDX 6 1 7 2 8 3 26 4 29 5 30 6 5 7 3 8 4 9 2 11 1 12 31 13 32 14
REMARK SMILES IDX 33 15 34 16 35 17 36 18 37 19 9 20 10 22 11 23 25 24 12 25
REMARK SMILES IDX 14 26 13 27 15 28 16 29 24 30 17 31 23 32 19 33 22 34 20 35
REMARK SMILES IDX 21 36 18 37 27 38 28 39
REMARK H PARENT 5 10 9 21
ROOT
ATOM      1  C   UNL     1      -4.572 -49.278  24.946  1.00  0.00     0.067 A 
ATOM      2  C   UNL     1      -3.863 -50.353  25.494  1.00  0.00     0.058 A 
ATOM      3  C   UNL     1      -3.464 -50.347  26.838  1.00  0.00     0.086 A 
ATOM      4  C   UNL     1      -3.790 -49.226  27.637  1.00  0.00     0.144 A 
ATOM      5  C   UNL     1      -4.496 -48.149  27.094  1.00  0.00     0.076 A 
ATOM      6  C   UNL     1      -4.889 -48.157  25.745  1.00  0.00     0.064 A 
ENDROOT
BRANCH   1   7
ATOM      7  N   UNL     1      -4.997 -49.222  23.600  1.00  0.00    -0.321 N 
ATOM      8  C   UNL     1      -5.302 -50.261  22.758  1.00  0.00     0.247 C 
ATOM      9  O   UNL     1      -5.373 -51.453  23.028  1.00  0.00    -0.270 OA
ATOM     10  H   UNL     1      -5.132 -48.269  23.275  1.00  0.00     0.170 HD
BRANCH   8  11
ATOM     11  C   UNL     1      -5.657 -49.835  21.378  1.00  0.00     0.064 C 
ATOM     12  C   UNL     1      -6.850 -49.338  21.029  1.00  0.00     0.014 C 
ENDBRANCH   8  11
ENDBRANCH   1   7
BRANCH   6  13
ATOM     13  N   UNL     1      -5.637 -47.079  25.167  1.00  0.00    -0.372 N 
ATOM     14  C   UNL     1      -6.891 -46.887  25.909  1.00  0.00     0.143 C 
BRANCH  13  15
ATOM     15  C   UNL     1      -4.821 -45.846  25.008  1.00  0.00     0.131 C 
BRANCH  15  16
ATOM     16  C   UNL     1      -4.340 -45.672  23.544  1.00  0.00     0.105 C 
BRANCH  16  17
ATOM     17  N   UNL     1      -3.195 -46.485  23.079  1.00  0.00    -0.308 NA
ATOM     18  C   UNL     1      -2.755 -46.142  21.731  1.00  0.00     0.105 C 
ATOM     19  C   UNL     1      -2.073 -46.443  24.014  1.00  0.00     0.105 C 
ENDBRANCH  16  17
ENDBRANCH  15  16
ENDBRANCH  13  15
ENDBRANCH   6  13
BRANCH   3  20
ATOM     20  N   UNL     1      -2.739 -51.391  27.440  1.00  0.00    -0.321 N 
ATOM     21  H   UNL     1      -3.050 -51.633  28.372  1.00  0.00     0.170 HD
BRANCH  20  22
ATOM     22  C   UNL     1      -1.716 -52.237  27.037  1.00  0.00     0.227 A 
ATOM     23  N   UNL     1      -1.209 -53.167  27.855  1.00  0.00    -0.221 NA
ATOM     24  N   UNL     1      -1.286 -52.055  25.780  1.00  0.00    -0.213 NA
ATOM     25  C   UNL     1      -0.218 -53.941  27.385  1.00  0.00     0.117 A 
ATOM     26  C   UNL     1      -0.278 -52.842  25.346  1.00  0.00     0.078 A 
ATOM     27  C   UNL     1       0.296 -53.823  26.121  1.00  0.00     0.049 A 
BRANCH  26  28
ATOM     28  C   UNL     1       0.168 -52.612  23.978  1.00  0.00     0.026 A 
ATOM     29  C   UNL     1       0.941 -53.528  23.288  1.00  0.00     0.096 A 
ATOM     30  C   UNL     1      -0.054 -51.505  23.094  1.00  0.00     0.009 A 
ATOM     31  N   UNL     1       1.213 -53.018  22.050  1.00  0.00    -0.350 N 
ATOM     32  C   UNL     1      -0.780 -50.296  23.185  1.00  0.00     0.011 A 
ATOM     33  C   UNL     1       0.624 -51.781  21.901  1.00  0.00     0.048 A 
ATOM     34  C   UNL     1      -0.789 -49.403  22.108  1.00  0.00     0.001 A 
ATOM     35  C   UNL     1       0.623 -50.890  20.815  1.00  0.00     0.027 A 
ATOM     36  C   UNL     1      -0.092 -49.696  20.941  1.00  0.00     0.002 A 
ATOM     37  C   UNL     1       1.999 -53.690  21.039  1.00  0.00     0.149 C 
ENDBRANCH  26  28
ENDBRANCH  20  22
ENDBRANCH   3  20
BRANCH   4  38
ATOM     38  O   UNL     1      -3.365 -49.302  28.946  1.00  0.00    -0.494 OA
ATOM     39  C   UNL     1      -4.076 -48.540  29.912  1.00  0.00     0.278 C 
ENDBRANCH   4  38
TORSDOF 10
ENDMDL
MODEL 4
REMARK VINA RESULT:      -7.1      2.517      4.508
REMARK SMILES C=CC(=O)Nc1cc(Nc2nccc(-c3cn(C)c4ccccc34)n2)c(OC)cc1N(C)CCN(C)C
REMARK SMILES IDX 6 1 7 2 8 3 26 4 29 5 30 6 5 7 3 8 4 9 2 11 1 12 31 13 32 14
REMARK SMILES IDX 33 15 34 16 35 17 36 18 37 19 9 20 10 22 11 23 25 24 12 25
REMARK SMILES IDX 14 26 13 27 15 28 16 29 24 30 17 31 23 32 19 33 22 34 20 35
REMARK SMILES IDX 21 36 18 37 27 38 28 39
REMARK H PARENT 5 10 9 21
ROOT
ATOM      1  C   UNL     1      -1.294 -49.092  16.880  1.00  0.00     0.067 A 
ATOM      2  C   UNL     1      -0.378 -49.765  17.697  1.00  0.00     0.058 A 
ATOM      3  C   UNL     1      -0.034 -49.268  18.962  1.00  0.00     0.086 A 
ATOM      4  C   UNL     1      -0.629 -48.062  19.401  1.00  0.00     0.144 A 
ATOM      5  C   UNL     1      -1.542 -47.384  18.589  1.00  0.00     0.076 A 
ATOM      6  C   UNL     1      -1.880 -47.884  17.320  1.00  0.00     0.064 A 
ENDROOT
BRANCH   1   7
ATOM      7  N   UNL     1      -1.677 -49.539  15.597  1.00  0.00    -0.321 N 
ATOM      8  C   UNL     1      -2.760 -50.306  15.249  1.00  0.00     0.247 C 
ATOM      9  O   UNL     1      -3.680 -50.678  15.965  1.00  0.00    -0.270 OA
ATOM     10  H   UNL     1      -1.076 -49.175  14.863  1.00  0.00     0.170 HD
BRANCH   8  11
ATOM     11  C   UNL     1      -2.821 -50.641  13.800  1.00  0.00     0.064 C 
ATOM     12  C   UNL     1      -3.663 -51.537  13.272  1.00  0.00     0.014 C 
ENDBRANCH   8  11
ENDBRANCH   1   7
BRANCH   6  13
ATOM     13  N   UNL     1      -2.833 -47.225  16.475  1.00  0.00    -0.372 N 
ATOM     14  C   UNL     1      -4.141 -47.175  17.142  1.00  0.00     0.143 C 
BRANCH  13  15
ATOM     15  C   UNL     1      -2.341 -45.910  15.985  1.00  0.00     0.131 C 
BRANCH  15  16
ATOM     16  C   UNL     1      -1.467 -46.072  14.714  1.00  0.00     0.105 C 
BRANCH  16  17
ATOM     17  N   UNL     1      -1.876 -47.068  13.701  1.00  0.00    -0.308 NA
ATOM     18  C   UNL     1      -3.074 -46.682  12.964  1.00  0.00     0.105 C 
ATOM     19  C   UNL     1      -0.789 -47.398  12.782  1.00  0.00     0.105 C 
ENDBRANCH  16  17
ENDBRANCH  15  16
ENDBRANCH  13  15
ENDBRANCH   6  13
BRANCH   3  20
ATOM     20  N   UNL     1       0.889 -49.893  19.820  1.00  0.00    -0.321 N 
ATOM     21  H   UNL     1       1.669 -49.309  20.091  1.00  0.00     0.170 HD
BRANCH  20  22
ATOM     22  C   UNL     1       0.962 -51.124  20.455  1.00  0.00     0.227 A 
ATOM     23  N   UNL     1       1.462 -52.203  19.840  1.00  0.00    -0.221 NA
ATOM     24  N   UNL     1       0.505 -51.147  21.715  1.00  0.00    -0.213 NA
ATOM     25  C   UNL     1       1.493 -53.357  20.526  1.00  0.00     0.117 A 
ATOM     26  C   UNL     1       0.538 -52.327  22.370  1.00  0.00     0.078 A 
ATOM     27  C   UNL     1       1.038 -53.480  21.812  1.00  0.00     0.049 A 
BRANCH  26  28
ATOM     28  C   UNL     1       0.027 -52.315  23.734  1.00  0.00     0.026 A 
ATOM     29  C   UNL     1       0.844 -52.518  24.831  1.00  0.00     0.096 A 
ATOM     30  C   UNL     1      -1.302 -52.111  24.235  1.00  0.00     0.009 A 
ATOM     31  N   UNL     1       0.072 -52.472  25.958  1.00  0.00    -0.350 N 
ATOM     32  C   UNL     1      -2.550 -51.822  23.640  1.00  0.00     0.011 A 
ATOM     33  C   UNL     1      -1.244 -52.230  25.629  1.00  0.00     0.048 A 
ATOM     34  C   UNL     1      -3.690 -51.684  24.440  1.00  0.00     0.001 A 
ATOM     35  C   UNL     1      -2.383 -52.095  26.440  1.00  0.00     0.027 A 
ATOM     36  C   UNL     1      -3.606 -51.824  25.821  1.00  0.00     0.002 A 
ATOM     37  C   UNL     1       0.574 -52.643  27.304  1.00  0.00     0.149 C 
ENDBRANCH  26  28
ENDBRANCH  20  22
ENDBRANCH   3  20
BRANCH   4  38
ATOM     38  O   UNL     1      -0.239 -47.644  20.656  1.00  0.00    -0.494 OA
ATOM     39  C   UNL     1      -1.222 -47.642  21.681  1.00  0.00     0.278 C 
ENDBRANCH   4  38
TORSDOF 10
ENDMDL
MODEL 5
REMARK VINA RESULT:      -7.0      3.146      8.156
REMARK SMILES C=CC(=O)Nc1cc(Nc2nccc(-c3cn(C)c4ccccc34)n2)c(OC)cc1N(C)CCN(C)C
REMARK SMILES IDX 6 1 7 2 8 3 26 4 29 5 30 6 5 7 3 8 4 9 2 11 1 12 31 13 32 14
REMARK SMILES IDX 33 15 34 16 35 17 36 18 37 19 9 20 10 22 11 23 25 24 12 25
REMARK SMILES IDX 14 26 13 27 15 28 16 29 24 30 17 31 23 32 19 33 22 34 20 35
REMARK SMILES IDX 21 36 18 37 27 38 28 39
REMARK H PARENT 5 10 9 21
ROOT
ATOM      1  C   UNL     1      -2.852 -50.984  24.509  1.00  0.00     0.067 A 
ATOM      2  C   UNL     1      -2.003 -51.793  23.746  1.00  0.00     0.058 A 
ATOM      3  C   UNL     1      -0.671 -52.009  24.129  1.00  0.00     0.086 A 
ATOM      4  C   UNL     1      -0.196 -51.388  25.308  1.00  0.00     0.144 A 
ATOM      5  C   UNL     1      -1.040 -50.577  26.072  1.00  0.00     0.076 A 
ATOM      6  C   UNL     1      -2.371 -50.359  25.681  1.00  0.00     0.064 A 
ENDROOT
BRANCH   1   7
ATOM      7  N   UNL     1      -4.199 -50.725  24.173  1.00  0.00    -0.321 N 
ATOM      8  C   UNL     1      -4.691 -49.884  23.207  1.00  0.00     0.247 C 
ATOM      9  O   UNL     1      -4.063 -49.261  22.361  1.00  0.00    -0.270 OA
ATOM     10  H   UNL     1      -4.849 -51.298  24.704  1.00  0.00     0.170 HD
BRANCH   8  11
ATOM     11  C   UNL     1      -6.176 -49.809  23.172  1.00  0.00     0.064 C 
ATOM     12  C   UNL     1      -6.889 -49.558  22.067  1.00  0.00     0.014 C 
ENDBRANCH   8  11
ENDBRANCH   1   7
BRANCH   6  13
ATOM     13  N   UNL     1      -3.268 -49.554  26.459  1.00  0.00    -0.372 N 
ATOM     14  C   UNL     1      -3.527 -50.202  27.752  1.00  0.00     0.143 C 
BRANCH  13  15
ATOM     15  C   UNL     1      -2.818 -48.141  26.557  1.00  0.00     0.131 C 
BRANCH  15  16
ATOM     16  C   UNL     1      -3.257 -47.320  25.317  1.00  0.00     0.105 C 
BRANCH  16  17
ATOM     17  N   UNL     1      -2.363 -46.248  24.829  1.00  0.00    -0.308 NA
ATOM     18  C   UNL     1      -2.126 -46.305  23.391  1.00  0.00     0.105 C 
ATOM     19  C   UNL     1      -2.828 -44.920  25.223  1.00  0.00     0.105 C 
ENDBRANCH  16  17
ENDBRANCH  15  16
ENDBRANCH  13  15
ENDBRANCH   6  13
BRANCH   3  20
ATOM     20  N   UNL     1       0.232 -52.800  23.396  1.00  0.00    -0.321 N 
ATOM     21  H   UNL     1       0.535 -53.639  23.874  1.00  0.00     0.170 HD
BRANCH  20  22
ATOM     22  C   UNL     1       0.775 -52.746  22.121  1.00  0.00     0.227 A 
ATOM     23  N   UNL     1       1.628 -53.678  21.680  1.00  0.00    -0.221 NA
ATOM     24  N   UNL     1       0.380 -51.704  21.375  1.00  0.00    -0.213 NA
ATOM     25  C   UNL     1       2.109 -53.547  20.434  1.00  0.00     0.117 A 
ATOM     26  C   UNL     1       0.896 -51.596  20.131  1.00  0.00     0.078 A 
ATOM     27  C   UNL     1       1.774 -52.512  19.602  1.00  0.00     0.049 A 
BRANCH  26  28
ATOM     28  C   UNL     1       0.449 -50.449  19.352  1.00  0.00     0.026 A 
ATOM     29  C   UNL     1      -0.208 -49.376  19.926  1.00  0.00     0.096 A 
ATOM     30  C   UNL     1       0.563 -50.167  17.950  1.00  0.00     0.009 A 
ATOM     31  N   UNL     1      -0.515 -48.481  18.941  1.00  0.00    -0.350 N 
ATOM     32  C   UNL     1       1.152 -50.833  16.852  1.00  0.00     0.011 A 
ATOM     33  C   UNL     1      -0.062 -48.936  17.721  1.00  0.00     0.048 A 
ATOM     34  C   UNL     1       1.079 -50.270  15.573  1.00  0.00     0.001 A 
ATOM     35  C   UNL     1      -0.142 -48.363  16.440  1.00  0.00     0.027 A 
ATOM     36  C   UNL     1       0.437 -49.053  15.372  1.00  0.00     0.002 A 
ATOM     37  C   UNL     1      -1.207 -47.229  19.155  1.00  0.00     0.149 C 
ENDBRANCH  26  28
ENDBRANCH  20  22
ENDBRANCH   3  20
BRANCH   4  38
ATOM     38  O   UNL     1       1.122 -51.653  25.615  1.00  0.00    -0.494 OA
ATOM     39  C   UNL     1       1.420 -52.030  26.952  1.00  0.00     0.278 C 
ENDBRANCH   4  38
TORSDOF 10
ENDMDL
MODEL 6
REMARK VINA RESULT:      -7.0      2.878      7.813
REMARK SMILES C=CC(=O)Nc1cc(Nc2nccc(-c3cn(C)c4ccccc34)n2)c(OC)cc1N(C)CCN(C)C
REMARK SMILES IDX 6 1 7 2 8 3 26 4 29 5 30 6 5 7 3 8 4 9 2 11 1 12 31 13 32 14
REMARK SMILES IDX 33 15 34 16 35 17 36 18 37 19 9 20 10 22 11 23 25 24 12 25
REMARK SMILES IDX 14 26 13 27 15 28 16 29 24 30 17 31 23 32 19 33 22 34 20 35
REMARK SMILES IDX 21 36 18 37 27 38 28 39
REMARK H PARENT 5 10 9 21
ROOT
ATOM      1  C   UNL     1      -3.061 -50.499  24.080  1.00  0.00     0.067 A 
ATOM      2  C   UNL     1      -2.321 -51.482  23.412  1.00  0.00     0.058 A 
ATOM      3  C   UNL     1      -0.965 -51.690  23.703  1.00  0.00     0.086 A 
ATOM      4  C   UNL     1      -0.351 -50.882  24.689  1.00  0.00     0.144 A 
ATOM      5  C   UNL     1      -1.084 -49.898  25.357  1.00  0.00     0.076 A 
ATOM      6  C   UNL     1      -2.441 -49.689  25.059  1.00  0.00     0.064 A 
ENDROOT
BRANCH   1   7
ATOM      7  N   UNL     1      -4.426 -50.238  23.830  1.00  0.00    -0.321 N 
ATOM      8  C   UNL     1      -5.037 -49.974  22.630  1.00  0.00     0.247 C 
ATOM      9  O   UNL     1      -4.546 -50.014  21.510  1.00  0.00    -0.270 OA
ATOM     10  H   UNL     1      -4.996 -50.320  24.666  1.00  0.00     0.170 HD
BRANCH   8  11
ATOM     11  C   UNL     1      -6.491 -49.682  22.746  1.00  0.00     0.064 C 
ATOM     12  C   UNL     1      -7.278 -49.367  21.710  1.00  0.00     0.014 C 
ENDBRANCH   8  11
ENDBRANCH   1   7
BRANCH   6  13
ATOM     13  N   UNL     1      -3.226 -48.705  25.746  1.00  0.00    -0.372 N 
ATOM     14  C   UNL     1      -3.459 -49.132  27.133  1.00  0.00     0.143 C 
BRANCH  13  15
ATOM     15  C   UNL     1      -2.663 -47.336  25.610  1.00  0.00     0.131 C 
BRANCH  15  16
ATOM     16  C   UNL     1      -3.539 -46.455  24.682  1.00  0.00     0.105 C 
BRANCH  16  17
ATOM     17  N   UNL     1      -3.842 -46.949  23.322  1.00  0.00    -0.308 NA
ATOM     18  C   UNL     1      -4.929 -46.225  22.674  1.00  0.00     0.105 C 
ATOM     19  C   UNL     1      -2.657 -46.974  22.467  1.00  0.00     0.105 C 
ENDBRANCH  16  17
ENDBRANCH  15  16
ENDBRANCH  13  15
ENDBRANCH   6  13
BRANCH   3  20
ATOM     20  N   UNL     1      -0.169 -52.652  23.056  1.00  0.00    -0.321 N 
ATOM     21  H   UNL     1      -0.153 -53.556  23.511  1.00  0.00     0.170 HD
BRANCH  20  22
ATOM     22  C   UNL     1       0.568 -52.689  21.881  1.00  0.00     0.227 A 
ATOM     23  N   UNL     1       1.530 -53.599  21.683  1.00  0.00    -0.221 NA
ATOM     24  N   UNL     1       0.243 -51.758  20.973  1.00  0.00    -0.213 NA
ATOM     25  C   UNL     1       2.197 -53.560  20.519  1.00  0.00     0.117 A 
ATOM     26  C   UNL     1       0.946 -51.740  19.820  1.00  0.00     0.078 A 
ATOM     27  C   UNL     1       1.945 -52.640  19.536  1.00  0.00     0.049 A 
BRANCH  26  28
ATOM     28  C   UNL     1       0.570 -50.711  18.859  1.00  0.00     0.026 A 
ATOM     29  C   UNL     1      -0.194 -49.613  19.212  1.00  0.00     0.096 A 
ATOM     30  C   UNL     1       0.861 -50.583  17.460  1.00  0.00     0.009 A 
ATOM     31  N   UNL     1      -0.396 -48.851  18.097  1.00  0.00    -0.350 N 
ATOM     32  C   UNL     1       1.613 -51.340  16.533  1.00  0.00     0.011 A 
ATOM     33  C   UNL     1       0.231 -49.418  17.008  1.00  0.00     0.048 A 
ATOM     34  C   UNL     1       1.694 -50.929  15.198  1.00  0.00     0.001 A 
ATOM     35  C   UNL     1       0.305 -48.998  15.669  1.00  0.00     0.027 A 
ATOM     36  C   UNL     1       1.044 -49.775  14.773  1.00  0.00     0.002 A 
ATOM     37  C   UNL     1      -1.152 -47.618  18.070  1.00  0.00     0.149 C 
ENDBRANCH  26  28
ENDBRANCH  20  22
ENDBRANCH   3  20
BRANCH   4  38
ATOM     38  O   UNL     1       0.981 -51.154  24.916  1.00  0.00    -0.494 OA
ATOM     39  C   UNL     1       1.392 -51.342  26.263  1.00  0.00     0.278 C 
ENDBRANCH   4  38
TORSDOF 10
ENDMDL
MODEL 7
REMARK VINA RESULT:      -7.0      3.275      9.405
REMARK SMILES C=CC(=O)Nc1cc(Nc2nccc(-c3cn(C)c4ccccc34)n2)c(OC)cc1N(C)CCN(C)C
REMARK SMILES IDX 6 1 7 2 8 3 26 4 29 5 30 6 5 7 3 8 4 9 2 11 1 12 31 13 32 14
REMARK SMILES IDX 33 15 34 16 35 17 36 18 37 19 9 20 10 22 11 23 25 24 12 25
REMARK SMILES IDX 14 26 13 27 15 28 16 29 24 30 17 31 23 32 19 33 22 34 20 35
REMARK SMILES IDX 21 36 18 37 27 38 28 39
REMARK H PARENT 5 10 9 21
ROOT
ATOM      1  C   UNL     1      -3.087 -50.306  24.232  1.00  0.00     0.067 A 
ATOM      2  C   UNL     1      -2.180 -50.349  23.167  1.00  0.00     0.058 A 
ATOM      3  C   UNL     1      -0.805 -50.510  23.393  1.00  0.00     0.086 A 
ATOM      4  C   UNL     1      -0.346 -50.627  24.726  1.00  0.00     0.144 A 
ATOM      5  C   UNL     1      -1.247 -50.582  25.793  1.00  0.00     0.076 A 
ATOM      6  C   UNL     1      -2.623 -50.415  25.563  1.00  0.00     0.064 A 
ENDROOT
BRANCH   1   7
ATOM      7  N   UNL     1      -4.480 -50.141  24.071  1.00  0.00    -0.321 N 
ATOM      8  C   UNL     1      -5.162 -49.037  23.628  1.00  0.00     0.247 C 
ATOM      9  O   UNL     1      -4.700 -47.996  23.179  1.00  0.00    -0.270 OA
ATOM     10  H   UNL     1      -4.997 -50.993  24.267  1.00  0.00     0.170 HD
BRANCH   8  11
ATOM     11  C   UNL     1      -6.642 -49.195  23.642  1.00  0.00     0.064 C 
ATOM     12  C   UNL     1      -7.449 -48.796  22.653  1.00  0.00     0.014 C 
ENDBRANCH   8  11
ENDBRANCH   1   7
BRANCH   6  13
ATOM     13  N   UNL     1      -3.575 -50.392  26.635  1.00  0.00    -0.372 N 
ATOM     14  C   UNL     1      -3.232 -51.420  27.628  1.00  0.00     0.143 C 
BRANCH  13  15
ATOM     15  C   UNL     1      -3.759 -49.029  27.198  1.00  0.00     0.131 C 
BRANCH  15  16
ATOM     16  C   UNL     1      -4.021 -49.079  28.726  1.00  0.00     0.105 C 
BRANCH  16  17
ATOM     17  N   UNL     1      -4.734 -47.947  29.356  1.00  0.00    -0.308 NA
ATOM     18  C   UNL     1      -5.832 -47.434  28.544  1.00  0.00     0.105 C 
ATOM     19  C   UNL     1      -5.195 -48.268  30.705  1.00  0.00     0.105 C 
ENDBRANCH  16  17
ENDBRANCH  15  16
ENDBRANCH  13  15
ENDBRANCH   6  13
BRANCH   3  20
ATOM     20  N   UNL     1       0.154 -50.547  22.365  1.00  0.00    -0.321 N 
ATOM     21  H   UNL     1       0.708 -49.704  22.280  1.00  0.00     0.170 HD
BRANCH  20  22
ATOM     22  C   UNL     1       0.583 -51.502  21.455  1.00  0.00     0.227 A 
ATOM     23  N   UNL     1       0.941 -52.732  21.842  1.00  0.00    -0.221 NA
ATOM     24  N   UNL     1       0.605 -51.103  20.175  1.00  0.00    -0.213 NA
ATOM     25  C   UNL     1       1.347 -53.593  20.896  1.00  0.00     0.117 A 
ATOM     26  C   UNL     1       1.033 -51.991  19.252  1.00  0.00     0.078 A 
ATOM     27  C   UNL     1       1.416 -53.274  19.566  1.00  0.00     0.049 A 
BRANCH  26  28
ATOM     28  C   UNL     1       1.050 -51.521  17.873  1.00  0.00     0.026 A 
ATOM     29  C   UNL     1       0.015 -50.781  17.332  1.00  0.00     0.096 A 
ATOM     30  C   UNL     1       2.031 -51.683  16.839  1.00  0.00     0.009 A 
ATOM     31  N   UNL     1       0.313 -50.514  16.025  1.00  0.00    -0.350 N 
ATOM     32  C   UNL     1       3.304 -52.293  16.771  1.00  0.00     0.011 A 
ATOM     33  C   UNL     1       1.535 -51.056  15.691  1.00  0.00     0.048 A 
ATOM     34  C   UNL     1       4.023 -52.278  15.570  1.00  0.00     0.001 A 
ATOM     35  C   UNL     1       2.248 -51.036  14.480  1.00  0.00     0.027 A 
ATOM     36  C   UNL     1       3.497 -51.660  14.440  1.00  0.00     0.002 A 
ATOM     37  C   UNL     1      -0.534 -49.760  15.127  1.00  0.00     0.149 C 
ENDBRANCH  26  28
ENDBRANCH  20  22
ENDBRANCH   3  20
BRANCH   4  38
ATOM     38  O   UNL     1       1.017 -50.785  24.860  1.00  0.00    -0.494 OA
ATOM     39  C   UNL     1       1.475 -51.819  25.719  1.00  0.00     0.278 C 
ENDBRANCH   4  38
TORSDOF 10
ENDMDL
MODEL 8
REMARK VINA RESULT:      -6.9      3.133      8.028
REMARK SMILES C=CC(=O)Nc1cc(Nc2nccc(-c3cn(C)c4ccccc34)n2)c(OC)cc1N(C)CCN(C)C
REMARK SMILES IDX 6 1 7 2 8 3 26 4 29 5 30 6 5 7 3 8 4 9 2 11 1 12 31 13 32 14
REMARK SMILES IDX 33 15 34 16 35 17 36 18 37 19 9 20 10 22 11 23 25 24 12 25
REMARK SMILES IDX 14 26 13 27 15 28 16 29 24 30 17 31 23 32 19 33 22 34 20 35
REMARK SMILES IDX 21 36 18 37 27 38 28 39
REMARK H PARENT 5 10 9 21
ROOT
ATOM      1  C   UNL     1      -3.060 -49.978  24.030  1.00  0.00     0.067 A 
ATOM      2  C   UNL     1      -2.263 -51.036  23.578  1.00  0.00     0.058 A 
ATOM      3  C   UNL     1      -1.015 -51.303  24.160  1.00  0.00     0.086 A 
ATOM      4  C   UNL     1      -0.571 -50.477  25.219  1.00  0.00     0.144 A 
ATOM      5  C   UNL     1      -1.362 -49.418  25.673  1.00  0.00     0.076 A 
ATOM      6  C   UNL     1      -2.608 -49.150  25.083  1.00  0.00     0.064 A 
ENDROOT
BRANCH   1   7
ATOM      7  N   UNL     1      -4.320 -49.655  23.482  1.00  0.00    -0.321 N 
ATOM      8  C   UNL     1      -5.361 -50.497  23.181  1.00  0.00     0.247 C 
ATOM      9  O   UNL     1      -5.455 -51.693  23.423  1.00  0.00    -0.270 OA
ATOM     10  H   UNL     1      -4.447 -48.654  23.363  1.00  0.00     0.170 HD
BRANCH   8  11
ATOM     11  C   UNL     1      -6.526 -49.816  22.554  1.00  0.00     0.064 C 
ATOM     12  C   UNL     1      -6.516 -49.297  21.320  1.00  0.00     0.014 C 
ENDBRANCH   8  11
ENDBRANCH   1   7
BRANCH   6  13
ATOM     13  N   UNL     1      -3.453 -48.088  25.544  1.00  0.00    -0.372 N 
ATOM     14  C   UNL     1      -3.952 -48.396  26.891  1.00  0.00     0.143 C 
BRANCH  13  15
ATOM     15  C   UNL     1      -2.806 -46.755  25.416  1.00  0.00     0.131 C 
BRANCH  15  16
ATOM     16  C   UNL     1      -2.960 -46.188  23.981  1.00  0.00     0.105 C 
BRANCH  16  17
ATOM     17  N   UNL     1      -2.407 -44.848  23.690  1.00  0.00    -0.308 NA
ATOM     18  C   UNL     1      -1.010 -44.703  24.086  1.00  0.00     0.105 C 
ATOM     19  C   UNL     1      -2.589 -44.467  22.291  1.00  0.00     0.105 C 
ENDBRANCH  16  17
ENDBRANCH  15  16
ENDBRANCH  13  15
ENDBRANCH   6  13
BRANCH   3  20
ATOM     20  N   UNL     1      -0.166 -52.343  23.740  1.00  0.00    -0.321 N 
ATOM     21  H   UNL     1       0.068 -53.009  24.464  1.00  0.00     0.170 HD
BRANCH  20  22
ATOM     22  C   UNL     1       0.394 -52.726  22.530  1.00  0.00     0.227 A 
ATOM     23  N   UNL     1       1.309 -53.700  22.455  1.00  0.00    -0.221 NA
ATOM     24  N   UNL     1      -0.052 -52.057  21.456  1.00  0.00    -0.213 NA
ATOM     25  C   UNL     1       1.801 -54.005  21.245  1.00  0.00     0.117 A 
ATOM     26  C   UNL     1       0.477 -52.380  20.256  1.00  0.00     0.078 A 
ATOM     27  C   UNL     1       1.418 -53.370  20.093  1.00  0.00     0.049 A 
BRANCH  26  28
ATOM     28  C   UNL     1      -0.026 -51.629  19.114  1.00  0.00     0.026 A 
ATOM     29  C   UNL     1       0.718 -51.448  17.962  1.00  0.00     0.096 A 
ATOM     30  C   UNL     1      -1.279 -50.960  18.911  1.00  0.00     0.009 A 
ATOM     31  N   UNL     1      -0.012 -50.688  17.092  1.00  0.00    -0.350 N 
ATOM     32  C   UNL     1      -2.456 -50.810  19.677  1.00  0.00     0.011 A 
ATOM     33  C   UNL     1      -1.234 -50.368  17.643  1.00  0.00     0.048 A 
ATOM     34  C   UNL     1      -3.529 -50.067  19.172  1.00  0.00     0.001 A 
ATOM     35  C   UNL     1      -2.305 -49.618  17.128  1.00  0.00     0.027 A 
ATOM     36  C   UNL     1      -3.450 -49.476  17.916  1.00  0.00     0.002 A 
ATOM     37  C   UNL     1       0.437 -50.287  15.777  1.00  0.00     0.149 C 
ENDBRANCH  26  28
ENDBRANCH  20  22
ENDBRANCH   3  20
BRANCH   4  38
ATOM     38  O   UNL     1       0.663 -50.810  25.737  1.00  0.00    -0.494 OA
ATOM     39  C   UNL     1       0.692 -51.416  27.022  1.00  0.00     0.278 C 
ENDBRANCH   4  38
TORSDOF 10
ENDMDL
MODEL 9
REMARK VINA RESULT:      -6.8      2.266      7.875
REMARK SMILES C=CC(=O)Nc1cc(Nc2nccc(-c3cn(C)c4ccccc34)n2)c(OC)cc1N(C)CCN(C)C
REMARK SMILES IDX 6 1 7 2 8 3 26 4 29 5 30 6 5 7 3 8 4 9 2 11 1 12 31 13 32 14
REMARK SMILES IDX 33 15 34 16 35 17 36 18 37 19 9 20 10 22 11 23 25 24 12 25
REMARK SMILES IDX 14 26 13 27 15 28 16 29 24 30 17 31 23 32 19 33 22 34 20 35
REMARK SMILES IDX 21 36 18 37 27 38 28 39
REMARK H PARENT 5 10 9 21
ROOT
ATOM      1  C   UNL     1      -0.478 -49.948  22.071  1.00  0.00     0.067 A 
ATOM      2  C   UNL     1       0.184 -50.293  20.887  1.00  0.00     0.058 A 
ATOM      3  C   UNL     1       0.683 -51.588  20.687  1.00  0.00     0.086 A 
ATOM      4  C   UNL     1       0.509 -52.547  21.712  1.00  0.00     0.144 A 
ATOM      5  C   UNL     1      -0.149 -52.208  22.897  1.00  0.00     0.076 A 
ATOM      6  C   UNL     1      -0.643 -50.908  23.096  1.00  0.00     0.064 A 
ENDROOT
BRANCH   1   7
ATOM      7  N   UNL     1      -0.998 -48.662  22.335  1.00  0.00    -0.321 N 
ATOM      8  C   UNL     1      -2.183 -48.118  21.909  1.00  0.00     0.247 C 
ATOM      9  O   UNL     1      -3.088 -48.670  21.297  1.00  0.00    -0.270 OA
ATOM     10  H   UNL     1      -0.411 -48.129  22.969  1.00  0.00     0.170 HD
BRANCH   8  11
ATOM     11  C   UNL     1      -2.383 -46.704  22.328  1.00  0.00     0.064 C 
ATOM     12  C   UNL     1      -1.394 -45.811  22.452  1.00  0.00     0.014 C 
ENDBRANCH   8  11
ENDBRANCH   1   7
BRANCH   6  13
ATOM     13  N   UNL     1      -1.345 -50.537  24.290  1.00  0.00    -0.372 N 
ATOM     14  C   UNL     1      -2.442 -51.483  24.537  1.00  0.00     0.143 C 
BRANCH  13  15
ATOM     15  C   UNL     1      -0.430 -50.340  25.445  1.00  0.00     0.131 C 
BRANCH  15  16
ATOM     16  C   UNL     1      -0.585 -51.477  26.489  1.00  0.00     0.105 C 
BRANCH  16  17
ATOM     17  N   UNL     1       0.564 -52.377  26.725  1.00  0.00    -0.308 NA
ATOM     18  C   UNL     1       1.186 -52.188  28.031  1.00  0.00     0.105 C 
ATOM     19  C   UNL     1       0.216 -53.781  26.518  1.00  0.00     0.105 C 
ENDBRANCH  16  17
ENDBRANCH  15  16
ENDBRANCH  13  15
ENDBRANCH   6  13
BRANCH   3  20
ATOM     20  N   UNL     1       1.367 -51.987  19.525  1.00  0.00    -0.321 N 
ATOM     21  H   UNL     1       2.070 -52.699  19.678  1.00  0.00     0.170 HD
BRANCH  20  22
ATOM     22  C   UNL     1       1.270 -51.685  18.175  1.00  0.00     0.227 A 
ATOM     23  N   UNL     1       2.151 -52.157  17.284  1.00  0.00    -0.221 NA
ATOM     24  N   UNL     1       0.238 -50.900  17.837  1.00  0.00    -0.213 NA
ATOM     25  C   UNL     1       1.985 -51.813  15.997  1.00  0.00     0.117 A 
ATOM     26  C   UNL     1       0.111 -50.561  16.536  1.00  0.00     0.078 A 
ATOM     27  C   UNL     1       0.969 -51.006  15.558  1.00  0.00     0.049 A 
BRANCH  26  28
ATOM     28  C   UNL     1      -1.019 -49.702  16.207  1.00  0.00     0.026 A 
ATOM     29  C   UNL     1      -1.792 -49.896  15.077  1.00  0.00     0.096 A 
ATOM     30  C   UNL     1      -1.560 -48.563  16.891  1.00  0.00     0.009 A 
ATOM     31  N   UNL     1      -2.749 -48.922  15.036  1.00  0.00    -0.350 N 
ATOM     32  C   UNL     1      -1.252 -47.895  18.098  1.00  0.00     0.011 A 
ATOM     33  C   UNL     1      -2.632 -48.088  16.127  1.00  0.00     0.048 A 
ATOM     34  C   UNL     1      -1.997 -46.777  18.488  1.00  0.00     0.001 A 
ATOM     35  C   UNL     1      -3.385 -46.965  16.509  1.00  0.00     0.027 A 
ATOM     36  C   UNL     1      -3.047 -46.318  17.699  1.00  0.00     0.002 A 
ATOM     37  C   UNL     1      -3.747 -48.795  13.997  1.00  0.00     0.149 C 
ENDBRANCH  26  28
ENDBRANCH  20  22
ENDBRANCH   3  20
BRANCH   4  38
ATOM     38  O   UNL     1       1.026 -53.795  21.434  1.00  0.00    -0.494 OA
ATOM     39  C   UNL     1       1.630 -54.507  22.505  1.00  0.00     0.278 C 
ENDBRANCH   4  38
TORSDOF 10
ENDMDL
