MODEL 1
REMARK minimizedAffinity -8.0231781
REMARK CNNscore 0.976669908
REMARK CNNaffinity 6.87542772
REMARK SMILES CC(=O)Nc1ccc(SC[C@H]2CCC(=O)NC2=O)cc1
REMARK SMILES IDX 9 1 8 2 5 3 6 4 20 5 7 6 19 7 4 8 2 9 3 10 1 11 10 13 11 14
REMARK SMILES IDX 12 15 17 16 13 17 16 18 18 19 14 20 15 21
REMARK H PARENT 4 12 16 22
ROOT
ATOM      1  S   UNL     1     -45.552  56.746 -96.185  1.00  0.00    -0.125 SA
ENDROOT
BRANCH   1   2
ATOM      2  C   UNL     1     -46.213  57.647 -94.797  1.00  0.00     0.007 A 
ATOM      3  C   UNL     1     -47.201  59.047 -92.554  1.00  0.00     0.041 A 
ATOM      4  C   UNL     1     -47.640  59.365 -93.839  1.00  0.00     0.027 A 
ATOM      5  C   UNL     1     -46.253  58.029 -92.401  1.00  0.00     0.027 A 
ATOM      6  C   UNL     1     -47.146  58.674 -94.953  1.00  0.00     0.017 A 
ATOM      7  C   UNL     1     -45.760  57.337 -93.513  1.00  0.00     0.017 A 
BRANCH   3   8
ATOM      8  N   UNL     1     -47.648  59.693 -91.383  1.00  0.00    -0.326 N 
ATOM      9  C   UNL     1     -48.538  60.747 -91.291  1.00  0.00     0.221 C 
ATOM     10  O   UNL     1     -49.096  61.326 -92.216  1.00  0.00    -0.275 OA
ATOM     11  C   UNL     1     -48.764  61.180 -89.863  1.00  0.00     0.114 C 
ATOM     12  H   UNL     1     -47.270  59.342 -90.513  1.00  0.00     0.169 HD
ENDBRANCH   3   8
ENDBRANCH   1   2
BRANCH   1  13
ATOM     13  C   UNL     1     -46.238  55.083 -95.854  1.00  0.00     0.088 C 
BRANCH  13  14
ATOM     14  C   UNL     1     -45.210  54.148 -95.204  1.00  0.00     0.089 C 
ATOM     15  C   UNL     1     -45.732  53.256 -94.071  1.00  0.00     0.024 C 
ATOM     16  C   UNL     1     -44.645  53.264 -96.298  1.00  0.00     0.230 C 
ATOM     17  C   UNL     1     -46.767  52.263 -94.575  1.00  0.00     0.101 C 
ATOM     18  N   UNL     1     -45.284  52.070 -96.520  1.00  0.00    -0.296 N 
ATOM     19  O   UNL     1     -43.697  53.611 -96.999  1.00  0.00    -0.274 OA
ATOM     20  C   UNL     1     -46.228  51.458 -95.734  1.00  0.00     0.226 C 
ATOM     21  O   UNL     1     -46.635  50.329 -95.994  1.00  0.00    -0.275 OA
ATOM     22  H   UNL     1     -44.906  51.501 -97.266  1.00  0.00     0.172 HD
ENDBRANCH  13  14
ENDBRANCH   1  13
TORSDOF 4
ENDMDL
MODEL 2
REMARK minimizedAffinity -8.09734726
REMARK CNNscore 0.963497937
REMARK CNNaffinity 6.57200623
REMARK SMILES CC(=O)Nc1ccc(SC[C@H]2CCC(=O)NC2=O)cc1
REMARK SMILES IDX 9 1 8 2 5 3 6 4 20 5 7 6 19 7 4 8 2 9 3 10 1 11 10 13 11 14
REMARK SMILES IDX 12 15 17 16 13 17 16 18 18 19 14 20 15 21
REMARK H PARENT 4 12 16 22
ROOT
ATOM      1  S   UNL     1     -45.500  56.697 -96.282  1.00  0.00    -0.125 SA
ENDROOT
BRANCH   1   2
ATOM      2  C   UNL     1     -45.031  57.424 -94.723  1.00  0.00     0.007 A 
ATOM      3  C   UNL     1     -44.247  58.511 -92.239  1.00  0.00     0.041 A 
ATOM      4  C   UNL     1     -44.794  59.326 -93.229  1.00  0.00     0.027 A 
ATOM      5  C   UNL     1     -44.083  57.147 -92.507  1.00  0.00     0.027 A 
ATOM      6  C   UNL     1     -45.179  58.788 -94.464  1.00  0.00     0.017 A 
ATOM      7  C   UNL     1     -44.468  56.609 -93.740  1.00  0.00     0.017 A 
BRANCH   3   8
ATOM      8  N   UNL     1     -43.836  58.973 -90.972  1.00  0.00    -0.326 N 
ATOM      9  C   UNL     1     -42.544  59.210 -90.541  1.00  0.00     0.221 C 
ATOM     10  O   UNL     1     -41.511  59.050 -91.181  1.00  0.00    -0.275 OA
ATOM     11  C   UNL     1     -42.498  59.688 -89.111  1.00  0.00     0.114 C 
ATOM     12  H   UNL     1     -44.575  59.148 -90.303  1.00  0.00     0.169 HD
ENDBRANCH   3   8
ENDBRANCH   1   2
BRANCH   1  13
ATOM     13  C   UNL     1     -46.241  55.129 -95.703  1.00  0.00     0.088 C 
BRANCH  13  14
ATOM     14  C   UNL     1     -45.189  54.154 -95.158  1.00  0.00     0.089 C 
ATOM     15  C   UNL     1     -45.657  53.210 -94.045  1.00  0.00     0.024 C 
ATOM     16  C   UNL     1     -44.694  53.322 -96.325  1.00  0.00     0.230 C 
ATOM     17  C   UNL     1     -46.729  52.252 -94.540  1.00  0.00     0.101 C 
ATOM     18  N   UNL     1     -45.357  52.145 -96.571  1.00  0.00    -0.296 N 
ATOM     19  O   UNL     1     -43.782  53.697 -97.059  1.00  0.00    -0.274 OA
ATOM     20  C   UNL     1     -46.263  51.503 -95.765  1.00  0.00     0.226 C 
ATOM     21  O   UNL     1     -46.695  50.392 -96.059  1.00  0.00    -0.275 OA
ATOM     22  H   UNL     1     -45.027  51.612 -97.364  1.00  0.00     0.172 HD
ENDBRANCH  13  14
ENDBRANCH   1  13
TORSDOF 4
ENDMDL
MODEL 3
REMARK minimizedAffinity -7.29138231
REMARK CNNscore 0.962024629
REMARK CNNaffinity 6.45175982
REMARK SMILES CC(=O)Nc1ccc(SC[C@H]2CCC(=O)NC2=O)cc1
REMARK SMILES IDX 9 1 8 2 5 3 6 4 20 5 7 6 19 7 4 8 2 9 3 10 1 11 10 13 11 14
REMARK SMILES IDX 12 15 17 16 13 17 16 18 18 19 14 20 15 21
REMARK H PARENT 4 12 16 22
ROOT
ATOM      1  S   UNL     1     -45.544  57.141 -96.186  1.00  0.00    -0.125 SA
ENDROOT
BRANCH   1   2
ATOM      2  C   UNL     1     -45.340  57.576 -97.903  1.00  0.00     0.007 A 
ATOM      3  C   UNL     1     -44.974  58.325-100.599  1.00  0.00     0.041 A 
ATOM      4  C   UNL     1     -45.454  57.057-100.274  1.00  0.00     0.027 A 
ATOM      5  C   UNL     1     -44.666  59.213 -99.561  1.00  0.00     0.027 A 
ATOM      6  C   UNL     1     -45.632  56.682 -98.935  1.00  0.00     0.017 A 
ATOM      7  C   UNL     1     -44.844  58.841 -98.225  1.00  0.00     0.017 A 
BRANCH   3   8
ATOM      8  N   UNL     1     -44.769  58.779-101.918  1.00  0.00    -0.326 N 
ATOM      9  C   UNL     1     -43.728  58.451-102.768  1.00  0.00     0.221 C 
ATOM     10  O   UNL     1     -42.781  57.712-102.526  1.00  0.00    -0.275 OA
ATOM     11  C   UNL     1     -43.841  59.147-104.103  1.00  0.00     0.114 C 
ATOM     12  H   UNL     1     -45.464  59.419-102.279  1.00  0.00     0.169 HD
ENDBRANCH   3   8
ENDBRANCH   1   2
BRANCH   1  13
ATOM     13  C   UNL     1     -45.938  55.363 -96.342  1.00  0.00     0.088 C 
BRANCH  13  14
ATOM     14  C   UNL     1     -45.000  54.483 -95.504  1.00  0.00     0.089 C 
ATOM     15  C   UNL     1     -45.638  53.767 -94.308  1.00  0.00     0.024 C 
ATOM     16  C   UNL     1     -44.404  53.444 -96.432  1.00  0.00     0.230 C 
ATOM     17  C   UNL     1     -46.681  52.755 -94.755  1.00  0.00     0.101 C 
ATOM     18  N   UNL     1     -45.081  52.255 -96.546  1.00  0.00    -0.296 N 
ATOM     19  O   UNL     1     -43.396  53.661 -97.101  1.00  0.00    -0.274 OA
ATOM     20  C   UNL     1     -46.103  51.787 -95.759  1.00  0.00     0.226 C 
ATOM     21  O   UNL     1     -46.543  50.649 -95.902  1.00  0.00    -0.275 OA
ATOM     22  H   UNL     1     -44.680  51.580 -97.184  1.00  0.00     0.172 HD
ENDBRANCH  13  14
ENDBRANCH   1  13
TORSDOF 4
ENDMDL
MODEL 4
REMARK minimizedAffinity -7.39120007
REMARK CNNscore 0.956512988
REMARK CNNaffinity 6.53929663
REMARK SMILES CC(=O)Nc1ccc(SC[C@H]2CCC(=O)NC2=O)cc1
REMARK SMILES IDX 9 1 8 2 5 3 6 4 20 5 7 6 19 7 4 8 2 9 3 10 1 11 10 13 11 14
REMARK SMILES IDX 12 15 17 16 13 17 16 18 18 19 14 20 15 21
REMARK H PARENT 4 12 16 22
ROOT
ATOM      1  S   UNL     1     -45.323  56.594 -96.586  1.00  0.00    -0.125 SA
ENDROOT
BRANCH   1   2
ATOM      2  C   UNL     1     -46.330  57.866 -95.847  1.00  0.00     0.007 A 
ATOM      3  C   UNL     1     -47.931  59.914 -94.748  1.00  0.00     0.041 A 
ATOM      4  C   UNL     1     -47.701  58.735 -94.039  1.00  0.00     0.027 A 
ATOM      5  C   UNL     1     -47.362  60.054 -96.020  1.00  0.00     0.027 A 
ATOM      6  C   UNL     1     -46.910  57.716 -94.586  1.00  0.00     0.017 A 
ATOM      7  C   UNL     1     -46.571  59.038 -96.566  1.00  0.00     0.017 A 
BRANCH   3   8
ATOM      8  N   UNL     1     -48.712  60.986 -94.269  1.00  0.00    -0.326 N 
ATOM      9  C   UNL     1     -50.067  61.188 -94.455  1.00  0.00     0.221 C 
ATOM     10  O   UNL     1     -50.841  60.476 -95.084  1.00  0.00    -0.275 OA
ATOM     11  C   UNL     1     -50.549  62.460 -93.800  1.00  0.00     0.114 C 
ATOM     12  H   UNL     1     -48.219  61.685 -93.729  1.00  0.00     0.169 HD
ENDBRANCH   3   8
ENDBRANCH   1   2
BRANCH   1  13
ATOM     13  C   UNL     1     -46.153  55.099 -95.937  1.00  0.00     0.088 C 
BRANCH  13  14
ATOM     14  C   UNL     1     -45.179  54.159 -95.216  1.00  0.00     0.089 C 
ATOM     15  C   UNL     1     -45.773  53.308 -94.088  1.00  0.00     0.024 C 
ATOM     16  C   UNL     1     -44.583  53.235 -96.260  1.00  0.00     0.230 C 
ATOM     17  C   UNL     1     -46.806  52.324 -94.616  1.00  0.00     0.101 C 
ATOM     18  N   UNL     1     -45.238  52.049 -96.483  1.00  0.00    -0.296 N 
ATOM     19  O   UNL     1     -43.595  53.543 -96.923  1.00  0.00    -0.274 OA
ATOM     20  C   UNL     1     -46.232  51.479 -95.727  1.00  0.00     0.226 C 
ATOM     21  O   UNL     1     -46.652  50.353 -95.979  1.00  0.00    -0.275 OA
ATOM     22  H   UNL     1     -44.839  51.454 -97.196  1.00  0.00     0.172 HD
ENDBRANCH  13  14
ENDBRANCH   1  13
TORSDOF 4
ENDMDL
MODEL 5
REMARK minimizedAffinity -7.53357267
REMARK CNNscore 0.937742233
REMARK CNNaffinity 6.16069746
REMARK SMILES CC(=O)Nc1ccc(SC[C@H]2CCC(=O)NC2=O)cc1
REMARK SMILES IDX 9 1 8 2 5 3 6 4 20 5 7 6 19 7 4 8 2 9 3 10 1 11 10 13 11 14
REMARK SMILES IDX 12 15 17 16 13 17 16 18 18 19 14 20 15 21
REMARK H PARENT 4 12 16 22
ROOT
ATOM      1  S   UNL     1     -46.149  56.774 -94.970  1.00  0.00    -0.125 SA
ENDROOT
BRANCH   1   2
ATOM      2  C   UNL     1     -45.418  57.670 -96.327  1.00  0.00     0.007 A 
ATOM      3  C   UNL     1     -44.319  59.066 -98.521  1.00  0.00     0.041 A 
ATOM      4  C   UNL     1     -43.886  59.331 -97.222  1.00  0.00     0.027 A 
ATOM      5  C   UNL     1     -45.318  58.103 -98.712  1.00  0.00     0.027 A 
ATOM      6  C   UNL     1     -44.434  58.642 -96.132  1.00  0.00     0.017 A 
ATOM      7  C   UNL     1     -45.865  57.414 -97.624  1.00  0.00     0.017 A 
BRANCH   3   8
ATOM      8  N   UNL     1     -43.818  59.712 -99.669  1.00  0.00    -0.326 N 
ATOM      9  C   UNL     1     -43.838  59.249-100.972  1.00  0.00     0.221 C 
ATOM     10  O   UNL     1     -44.287  58.180-101.369  1.00  0.00    -0.275 OA
ATOM     11  C   UNL     1     -43.194  60.218-101.932  1.00  0.00     0.114 C 
ATOM     12  H   UNL     1     -43.394  60.618 -99.517  1.00  0.00     0.169 HD
ENDBRANCH   3   8
ENDBRANCH   1   2
BRANCH   1  13
ATOM     13  C   UNL     1     -46.272  55.106 -95.707  1.00  0.00     0.088 C 
BRANCH  13  14
ATOM     14  C   UNL     1     -45.195  54.153 -95.174  1.00  0.00     0.089 C 
ATOM     15  C   UNL     1     -45.628  53.207 -94.047  1.00  0.00     0.024 C 
ATOM     16  C   UNL     1     -44.703  53.323 -96.343  1.00  0.00     0.230 C 
ATOM     17  C   UNL     1     -46.690  52.227 -94.520  1.00  0.00     0.101 C 
ATOM     18  N   UNL     1     -45.349  52.133 -96.572  1.00  0.00    -0.296 N 
ATOM     19  O   UNL     1     -43.810  53.709 -97.094  1.00  0.00    -0.274 OA
ATOM     20  C   UNL     1     -46.231  51.479 -95.748  1.00  0.00     0.226 C 
ATOM     21  O   UNL     1     -46.648  50.359 -96.029  1.00  0.00    -0.275 OA
ATOM     22  H   UNL     1     -45.022  51.601 -97.368  1.00  0.00     0.172 HD
ENDBRANCH  13  14
ENDBRANCH   1  13
TORSDOF 4
ENDMDL
MODEL 6
REMARK minimizedAffinity -5.26680517
REMARK CNNscore 0.351226777
REMARK CNNaffinity 3.99876618
REMARK SMILES CC(=O)Nc1ccc(SC[C@H]2CCC(=O)NC2=O)cc1
REMARK SMILES IDX 9 1 8 2 5 3 6 4 20 5 7 6 19 7 4 8 2 9 3 10 1 11 10 13 11 14
REMARK SMILES IDX 12 15 17 16 13 17 16 18 18 19 14 20 15 21
REMARK H PARENT 4 12 16 22
ROOT
ATOM      1  S   UNL     1     -40.349  55.273-104.753  1.00  0.00    -0.125 SA
ENDROOT
BRANCH   1   2
ATOM      2  C   UNL     1     -41.672  56.108-103.899  1.00  0.00     0.007 A 
ATOM      3  C   UNL     1     -43.796  57.362-102.526  1.00  0.00     0.041 A 
ATOM      4  C   UNL     1     -42.663  58.086-102.893  1.00  0.00     0.027 A 
ATOM      5  C   UNL     1     -43.853  55.999-102.841  1.00  0.00     0.027 A 
ATOM      6  C   UNL     1     -41.605  57.464-103.570  1.00  0.00     0.017 A 
ATOM      7  C   UNL     1     -42.798  55.377-103.518  1.00  0.00     0.017 A 
BRANCH   3   8
ATOM      8  N   UNL     1     -44.901  57.912-101.845  1.00  0.00    -0.326 N 
ATOM      9  C   UNL     1     -45.602  57.357-100.791  1.00  0.00     0.221 C 
ATOM     10  O   UNL     1     -45.398  56.272-100.258  1.00  0.00    -0.275 OA
ATOM     11  C   UNL     1     -46.736  58.240-100.331  1.00  0.00     0.114 C 
ATOM     12  H   UNL     1     -45.215  58.817-102.171  1.00  0.00     0.169 HD
ENDBRANCH   3   8
ENDBRANCH   1   2
BRANCH   1  13
ATOM     13  C   UNL     1     -39.201  56.669-105.027  1.00  0.00     0.088 C 
BRANCH  13  14
ATOM     14  C   UNL     1     -37.883  56.499-104.260  1.00  0.00     0.089 C 
ATOM     15  C   UNL     1     -36.743  57.442-104.661  1.00  0.00     0.024 C 
ATOM     16  C   UNL     1     -38.185  56.699-102.788  1.00  0.00     0.230 C 
ATOM     17  C   UNL     1     -37.084  58.892-104.354  1.00  0.00     0.101 C 
ATOM     18  N   UNL     1     -38.064  57.976-102.300  1.00  0.00    -0.296 N 
ATOM     19  O   UNL     1     -38.576  55.783-102.067  1.00  0.00    -0.274 OA
ATOM     20  C   UNL     1     -37.485  59.061-102.909  1.00  0.00     0.226 C 
ATOM     21  O   UNL     1     -37.341  60.123-102.308  1.00  0.00    -0.275 OA
ATOM     22  H   UNL     1     -38.289  58.096-101.321  1.00  0.00     0.172 HD
ENDBRANCH  13  14
ENDBRANCH   1  13
TORSDOF 4
ENDMDL
MODEL 7
REMARK minimizedAffinity -6.0806303
REMARK CNNscore 0.279049754
REMARK CNNaffinity 5.15339994
REMARK SMILES CC(=O)Nc1ccc(SC[C@H]2CCC(=O)NC2=O)cc1
REMARK SMILES IDX 9 1 8 2 5 3 6 4 20 5 7 6 19 7 4 8 2 9 3 10 1 11 10 13 11 14
REMARK SMILES IDX 12 15 17 16 13 17 16 18 18 19 14 20 15 21
REMARK H PARENT 4 12 16 22
ROOT
ATOM      1  S   UNL     1     -44.894  59.784 -96.629  1.00  0.00    -0.125 SA
ENDROOT
BRANCH   1   2
ATOM      2  C   UNL     1     -45.377  58.131 -96.170  1.00  0.00     0.007 A 
ATOM      3  C   UNL     1     -46.186  55.543 -95.385  1.00  0.00     0.041 A 
ATOM      4  C   UNL     1     -45.619  55.759 -96.641  1.00  0.00     0.027 A 
ATOM      5  C   UNL     1     -46.357  56.637 -94.528  1.00  0.00     0.027 A 
ATOM      6  C   UNL     1     -45.222  57.045 -97.033  1.00  0.00     0.017 A 
ATOM      7  C   UNL     1     -45.959  57.921 -94.919  1.00  0.00     0.017 A 
BRANCH   3   8
ATOM      8  N   UNL     1     -46.610  54.284 -94.915  1.00  0.00    -0.326 N 
ATOM      9  C   UNL     1     -46.084  53.045 -95.235  1.00  0.00     0.221 C 
ATOM     10  O   UNL     1     -45.155  52.813 -96.000  1.00  0.00    -0.275 OA
ATOM     11  C   UNL     1     -46.812  51.920 -94.543  1.00  0.00     0.114 C 
ATOM     12  H   UNL     1     -47.390  54.291 -94.271  1.00  0.00     0.169 HD
ENDBRANCH   3   8
ENDBRANCH   1   2
BRANCH   1  13
ATOM     13  C   UNL     1     -46.493  60.654 -96.456  1.00  0.00     0.088 C 
BRANCH  13  14
ATOM     14  C   UNL     1     -47.669  59.820 -96.980  1.00  0.00     0.089 C 
ATOM     15  C   UNL     1     -48.954  59.869 -96.147  1.00  0.00     0.024 C 
ATOM     16  C   UNL     1     -47.980  60.306 -98.382  1.00  0.00     0.230 C 
ATOM     17  C   UNL     1     -49.558  61.265 -96.132  1.00  0.00     0.101 C 
ATOM     18  N   UNL     1     -48.909  61.310 -98.497  1.00  0.00    -0.296 N 
ATOM     19  O   UNL     1     -47.396  59.872 -99.373  1.00  0.00    -0.274 OA
ATOM     20  C   UNL     1     -49.767  61.781 -97.535  1.00  0.00     0.226 C 
ATOM     21  O   UNL     1     -50.632  62.609 -97.807  1.00  0.00    -0.275 OA
ATOM     22  H   UNL     1     -49.090  61.636 -99.437  1.00  0.00     0.172 HD
ENDBRANCH  13  14
ENDBRANCH   1  13
TORSDOF 4
ENDMDL
MODEL 8
REMARK minimizedAffinity -6.36858463
REMARK CNNscore 0.268125445
REMARK CNNaffinity 5.06190443
REMARK SMILES CC(=O)Nc1ccc(SC[C@H]2CCC(=O)NC2=O)cc1
REMARK SMILES IDX 9 1 8 2 5 3 6 4 20 5 7 6 19 7 4 8 2 9 3 10 1 11 10 13 11 14
REMARK SMILES IDX 12 15 17 16 13 17 16 18 18 19 14 20 15 21
REMARK H PARENT 4 12 16 22
ROOT
ATOM      1  S   UNL     1     -45.096  59.109 -97.261  1.00  0.00    -0.125 SA
ENDROOT
BRANCH   1   2
ATOM      2  C   UNL     1     -45.528  57.520 -96.579  1.00  0.00     0.007 A 
ATOM      3  C   UNL     1     -46.268  55.039 -95.454  1.00  0.00     0.041 A 
ATOM      4  C   UNL     1     -45.492  55.090 -96.611  1.00  0.00     0.027 A 
ATOM      5  C   UNL     1     -46.682  56.242 -94.869  1.00  0.00     0.027 A 
ATOM      6  C   UNL     1     -45.129  56.321 -97.173  1.00  0.00     0.017 A 
ATOM      7  C   UNL     1     -46.319  57.471 -95.429  1.00  0.00     0.017 A 
BRANCH   3   8
ATOM      8  N   UNL     1     -46.675  53.843 -94.826  1.00  0.00    -0.326 N 
ATOM      9  C   UNL     1     -46.323  52.551 -95.170  1.00  0.00     0.221 C 
ATOM     10  O   UNL     1     -45.599  52.204 -96.096  1.00  0.00    -0.275 OA
ATOM     11  C   UNL     1     -46.968  51.526 -94.271  1.00  0.00     0.114 C 
ATOM     12  H   UNL     1     -47.297  53.948 -94.036  1.00  0.00     0.169 HD
ENDBRANCH   3   8
ENDBRANCH   1   2
BRANCH   1  13
ATOM     13  C   UNL     1     -46.097  59.092 -98.791  1.00  0.00     0.088 C 
BRANCH  13  14
ATOM     14  C   UNL     1     -46.924  60.374 -98.960  1.00  0.00     0.089 C 
ATOM     15  C   UNL     1     -47.112  60.870-100.398  1.00  0.00     0.024 C 
ATOM     16  C   UNL     1     -48.288  60.118 -98.351  1.00  0.00     0.230 C 
ATOM     17  C   UNL     1     -47.916  59.882-101.228  1.00  0.00     0.101 C 
ATOM     18  N   UNL     1     -49.258  59.628 -99.191  1.00  0.00    -0.296 N 
ATOM     19  O   UNL     1     -48.514  60.280 -97.154  1.00  0.00    -0.274 OA
ATOM     20  C   UNL     1     -49.229  59.554-100.561  1.00  0.00     0.226 C 
ATOM     21  O   UNL     1     -50.218  59.199-101.196  1.00  0.00    -0.275 OA
ATOM     22  H   UNL     1     -50.156  59.444 -98.764  1.00  0.00     0.172 HD
ENDBRANCH  13  14
ENDBRANCH   1  13
TORSDOF 4
ENDMDL
MODEL 9
REMARK minimizedAffinity -7.71630478
REMARK CNNscore 0.243064746
REMARK CNNaffinity 4.92516327
REMARK SMILES CC(=O)Nc1ccc(SC[C@H]2CCC(=O)NC2=O)cc1
REMARK SMILES IDX 9 1 8 2 5 3 6 4 20 5 7 6 19 7 4 8 2 9 3 10 1 11 10 13 11 14
REMARK SMILES IDX 12 15 17 16 13 17 16 18 18 19 14 20 15 21
REMARK H PARENT 4 12 16 22
ROOT
ATOM      1  S   UNL     1     -45.835  59.097 -95.266  1.00  0.00    -0.125 SA
ENDROOT
BRANCH   1   2
ATOM      2  C   UNL     1     -45.819  57.346 -95.601  1.00  0.00     0.007 A 
ATOM      3  C   UNL     1     -45.857  54.566 -96.084  1.00  0.00     0.041 A 
ATOM      4  C   UNL     1     -45.116  55.418 -96.902  1.00  0.00     0.027 A 
ATOM      5  C   UNL     1     -46.591  55.119 -95.028  1.00  0.00     0.027 A 
ATOM      6  C   UNL     1     -45.100  56.799 -96.665  1.00  0.00     0.017 A 
ATOM      7  C   UNL     1     -46.575  56.497 -94.791  1.00  0.00     0.017 A 
BRANCH   3   8
ATOM      8  N   UNL     1     -45.925  53.168 -96.254  1.00  0.00    -0.326 N 
ATOM      9  C   UNL     1     -46.270  52.221 -95.307  1.00  0.00     0.221 C 
ATOM     10  O   UNL     1     -46.572  52.423 -94.137  1.00  0.00    -0.275 OA
ATOM     11  C   UNL     1     -46.216  50.817 -95.858  1.00  0.00     0.114 C 
ATOM     12  H   UNL     1     -45.690  52.822 -97.175  1.00  0.00     0.169 HD
ENDBRANCH   3   8
ENDBRANCH   1   2
BRANCH   1  13
ATOM     13  C   UNL     1     -45.624  59.086 -93.450  1.00  0.00     0.088 C 
BRANCH  13  14
ATOM     14  C   UNL     1     -44.149  59.007 -93.035  1.00  0.00     0.089 C 
ATOM     15  C   UNL     1     -43.614  60.188 -92.217  1.00  0.00     0.024 C 
ATOM     16  C   UNL     1     -43.972  57.736 -92.228  1.00  0.00     0.230 C 
ATOM     17  C   UNL     1     -44.302  60.287 -90.865  1.00  0.00     0.101 C 
ATOM     18  N   UNL     1     -44.134  57.840 -90.869  1.00  0.00    -0.296 N 
ATOM     19  O   UNL     1     -43.751  56.649 -92.755  1.00  0.00    -0.274 OA
ATOM     20  C   UNL     1     -44.210  58.982 -90.112  1.00  0.00     0.226 C 
ATOM     21  O   UNL     1     -44.240  58.929 -88.885  1.00  0.00    -0.275 OA
ATOM     22  H   UNL     1     -44.033  56.979 -90.347  1.00  0.00     0.172 HD
ENDBRANCH  13  14
ENDBRANCH   1  13
TORSDOF 4
ENDMDL
