MODEL 1
REMARK minimizedAffinity -8.36231995
REMARK CNNscore 0.948453307
REMARK CNNaffinity 6.60409975
REMARK SMILES CC(=O)Nc1ccccc1SC[C@@H]1CCC(=O)NC1=O
REMARK SMILES IDX 11 1 10 2 5 3 6 4 7 5 9 6 8 7 4 8 2 9 3 10 1 11 12 13 13 14
REMARK SMILES IDX 14 15 19 16 15 17 18 18 20 19 16 20 17 21
REMARK H PARENT 4 12 18 22
ROOT
ATOM      1  S   UNL     1     -46.351  56.846 -94.946  1.00  0.00    -0.123 SA
ENDROOT
BRANCH   1   2
ATOM      2  C   UNL     1     -45.595  57.940 -96.152  1.00  0.00     0.031 A 
ATOM      3  C   UNL     1     -45.030  59.186 -95.798  1.00  0.00     0.054 A 
ATOM      4  C   UNL     1     -44.467  59.974 -96.809  1.00  0.00     0.027 A 
ATOM      5  C   UNL     1     -44.467  59.542 -98.139  1.00  0.00     0.002 A 
ATOM      6  C   UNL     1     -45.600  57.521 -97.490  1.00  0.00     0.017 A 
ATOM      7  C   UNL     1     -45.034  58.320 -98.481  1.00  0.00     0.001 A 
BRANCH   3   8
ATOM      8  N   UNL     1     -45.064  59.591 -94.440  1.00  0.00    -0.325 N 
ATOM      9  C   UNL     1     -43.997  59.788 -93.584  1.00  0.00     0.221 C 
ATOM     10  O   UNL     1     -42.812  59.594 -93.828  1.00  0.00    -0.275 OA
ATOM     11  C   UNL     1     -44.429  60.271 -92.223  1.00  0.00     0.114 C 
ATOM     12  H   UNL     1     -45.994  59.731 -94.046  1.00  0.00     0.169 HD
ENDBRANCH   3   8
ENDBRANCH   1   2
BRANCH   1  13
ATOM     13  C   UNL     1     -45.222  55.413 -95.119  1.00  0.00     0.088 C 
BRANCH  13  14
ATOM     14  C   UNL     1     -45.946  54.092 -95.410  1.00  0.00     0.089 C 
ATOM     15  C   UNL     1     -46.105  53.183 -94.191  1.00  0.00     0.024 C 
ATOM     16  C   UNL     1     -45.279  53.327 -96.543  1.00  0.00     0.230 C 
ATOM     17  C   UNL     1     -46.929  51.963 -94.576  1.00  0.00     0.101 C 
ATOM     18  N   UNL     1     -45.634  52.005 -96.660  1.00  0.00    -0.296 N 
ATOM     19  O   UNL     1     -44.504  53.843 -97.345  1.00  0.00    -0.274 OA
ATOM     20  C   UNL     1     -46.314  51.236 -95.747  1.00  0.00     0.226 C 
ATOM     21  O   UNL     1     -46.443  50.026 -95.912  1.00  0.00    -0.275 OA
ATOM     22  H   UNL     1     -45.199  51.493 -97.416  1.00  0.00     0.172 HD
ENDBRANCH  13  14
ENDBRANCH   1  13
TORSDOF 4
ENDMDL
MODEL 2
REMARK minimizedAffinity -8.1192894
REMARK CNNscore 0.9376297
REMARK CNNaffinity 6.77373886
REMARK SMILES CC(=O)Nc1ccccc1SC[C@@H]1CCC(=O)NC1=O
REMARK SMILES IDX 11 1 10 2 5 3 6 4 7 5 9 6 8 7 4 8 2 9 3 10 1 11 12 13 13 14
REMARK SMILES IDX 14 15 19 16 15 17 18 18 20 19 16 20 17 21
REMARK H PARENT 4 12 18 22
ROOT
ATOM      1  S   UNL     1     -45.930  56.868 -95.574  1.00  0.00    -0.123 SA
ENDROOT
BRANCH   1   2
ATOM      2  C   UNL     1     -45.856  57.692 -93.982  1.00  0.00     0.031 A 
ATOM      3  C   UNL     1     -46.820  58.642 -93.573  1.00  0.00     0.054 A 
ATOM      4  C   UNL     1     -46.677  59.236 -92.314  1.00  0.00     0.027 A 
ATOM      5  C   UNL     1     -45.604  58.904 -91.481  1.00  0.00     0.002 A 
ATOM      6  C   UNL     1     -44.778  57.374 -93.144  1.00  0.00     0.017 A 
ATOM      7  C   UNL     1     -44.655  57.976 -91.894  1.00  0.00     0.001 A 
BRANCH   3   8
ATOM      8  N   UNL     1     -47.884  58.959 -94.455  1.00  0.00    -0.325 N 
ATOM      9  C   UNL     1     -48.040  60.096 -95.225  1.00  0.00     0.221 C 
ATOM     10  O   UNL     1     -47.306  61.078 -95.246  1.00  0.00    -0.275 OA
ATOM     11  C   UNL     1     -49.281  60.050 -96.080  1.00  0.00     0.114 C 
ATOM     12  H   UNL     1     -48.632  58.269 -94.506  1.00  0.00     0.169 HD
ENDBRANCH   3   8
ENDBRANCH   1   2
BRANCH   1  13
ATOM     13  C   UNL     1     -45.012  55.341 -95.146  1.00  0.00     0.088 C 
BRANCH  13  14
ATOM     14  C   UNL     1     -45.796  54.053 -95.426  1.00  0.00     0.089 C 
ATOM     15  C   UNL     1     -46.013  53.172 -94.194  1.00  0.00     0.024 C 
ATOM     16  C   UNL     1     -45.155  53.238 -96.538  1.00  0.00     0.230 C 
ATOM     17  C   UNL     1     -46.892  51.987 -94.571  1.00  0.00     0.101 C 
ATOM     18  N   UNL     1     -45.573  51.933 -96.639  1.00  0.00    -0.296 N 
ATOM     19  O   UNL     1     -44.346  53.702 -97.339  1.00  0.00    -0.274 OA
ATOM     20  C   UNL     1     -46.300  51.213 -95.723  1.00  0.00     0.226 C 
ATOM     21  O   UNL     1     -46.486  50.008 -95.871  1.00  0.00    -0.275 OA
ATOM     22  H   UNL     1     -45.154  51.389 -97.382  1.00  0.00     0.172 HD
ENDBRANCH  13  14
ENDBRANCH   1  13
TORSDOF 4
ENDMDL
MODEL 3
REMARK minimizedAffinity -8.13804817
REMARK CNNscore 0.934982002
REMARK CNNaffinity 6.48827028
REMARK SMILES CC(=O)Nc1ccccc1SC[C@@H]1CCC(=O)NC1=O
REMARK SMILES IDX 11 1 10 2 5 3 6 4 7 5 9 6 8 7 4 8 2 9 3 10 1 11 12 13 13 14
REMARK SMILES IDX 14 15 19 16 15 17 18 18 20 19 16 20 17 21
REMARK H PARENT 4 12 18 22
ROOT
ATOM      1  S   UNL     1     -46.275  56.715 -94.636  1.00  0.00    -0.123 SA
ENDROOT
BRANCH   1   2
ATOM      2  C   UNL     1     -45.047  57.998 -94.378  1.00  0.00     0.031 A 
ATOM      3  C   UNL     1     -44.410  58.666 -95.449  1.00  0.00     0.054 A 
ATOM      4  C   UNL     1     -43.461  59.650 -95.150  1.00  0.00     0.027 A 
ATOM      5  C   UNL     1     -43.145  59.964 -93.824  1.00  0.00     0.002 A 
ATOM      6  C   UNL     1     -44.716  58.312 -93.053  1.00  0.00     0.017 A 
ATOM      7  C   UNL     1     -43.769  59.296 -92.777  1.00  0.00     0.001 A 
BRANCH   3   8
ATOM      8  N   UNL     1     -44.751  58.306 -96.777  1.00  0.00    -0.325 N 
ATOM      9  C   UNL     1     -44.968  59.143 -97.856  1.00  0.00     0.221 C 
ATOM     10  O   UNL     1     -44.960  60.369 -97.850  1.00  0.00    -0.275 OA
ATOM     11  C   UNL     1     -45.260  58.386 -99.126  1.00  0.00     0.114 C 
ATOM     12  H   UNL     1     -44.869  57.309 -96.945  1.00  0.00     0.169 HD
ENDBRANCH   3   8
ENDBRANCH   1   2
BRANCH   1  13
ATOM     13  C   UNL     1     -45.163  55.362 -95.173  1.00  0.00     0.088 C 
BRANCH  13  14
ATOM     14  C   UNL     1     -45.894  54.045 -95.463  1.00  0.00     0.089 C 
ATOM     15  C   UNL     1     -46.138  53.179 -94.227  1.00  0.00     0.024 C 
ATOM     16  C   UNL     1     -45.178  53.231 -96.531  1.00  0.00     0.230 C 
ATOM     17  C   UNL     1     -46.961  51.960 -94.619  1.00  0.00     0.101 C 
ATOM     18  N   UNL     1     -45.551  51.912 -96.627  1.00  0.00    -0.296 N 
ATOM     19  O   UNL     1     -44.350  53.708 -97.304  1.00  0.00    -0.274 OA
ATOM     20  C   UNL     1     -46.295  51.185 -95.730  1.00  0.00     0.226 C 
ATOM     21  O   UNL     1     -46.437  49.973 -95.863  1.00  0.00    -0.275 OA
ATOM     22  H   UNL     1     -45.083  51.369 -97.340  1.00  0.00     0.172 HD
ENDBRANCH  13  14
ENDBRANCH   1  13
TORSDOF 4
ENDMDL
MODEL 4
REMARK minimizedAffinity -8.02243996
REMARK CNNscore 0.933520377
REMARK CNNaffinity 6.68023109
REMARK SMILES CC(=O)Nc1ccccc1SC[C@@H]1CCC(=O)NC1=O
REMARK SMILES IDX 11 1 10 2 5 3 6 4 7 5 9 6 8 7 4 8 2 9 3 10 1 11 12 13 13 14
REMARK SMILES IDX 14 15 19 16 15 17 18 18 20 19 16 20 17 21
REMARK H PARENT 4 12 18 22
ROOT
ATOM      1  S   UNL     1     -44.642  56.348 -93.996  1.00  0.00    -0.123 SA
ENDROOT
BRANCH   1   2
ATOM      2  C   UNL     1     -45.734  57.751 -93.751  1.00  0.00     0.031 A 
ATOM      3  C   UNL     1     -46.079  58.637 -94.796  1.00  0.00     0.054 A 
ATOM      4  C   UNL     1     -46.935  59.707 -94.508  1.00  0.00     0.027 A 
ATOM      5  C   UNL     1     -47.435  59.898 -93.216  1.00  0.00     0.002 A 
ATOM      6  C   UNL     1     -46.232  57.957 -92.456  1.00  0.00     0.017 A 
ATOM      7  C   UNL     1     -47.084  59.028 -92.191  1.00  0.00     0.001 A 
BRANCH   3   8
ATOM      8  N   UNL     1     -45.539  58.414 -96.088  1.00  0.00    -0.325 N 
ATOM      9  C   UNL     1     -45.846  59.072 -97.264  1.00  0.00     0.221 C 
ATOM     10  O   UNL     1     -46.693  59.944 -97.421  1.00  0.00    -0.275 OA
ATOM     11  C   UNL     1     -45.022  58.587 -98.429  1.00  0.00     0.114 C 
ATOM     12  H   UNL     1     -44.857  57.660 -96.154  1.00  0.00     0.169 HD
ENDBRANCH   3   8
ENDBRANCH   1   2
BRANCH   1  13
ATOM     13  C   UNL     1     -45.156  55.882 -95.692  1.00  0.00     0.088 C 
BRANCH  13  14
ATOM     14  C   UNL     1     -45.861  54.522 -95.768  1.00  0.00     0.089 C 
ATOM     15  C   UNL     1     -45.819  53.722 -94.465  1.00  0.00     0.024 C 
ATOM     16  C   UNL     1     -45.323  53.676 -96.912  1.00  0.00     0.230 C 
ATOM     17  C   UNL     1     -46.639  52.450 -94.628  1.00  0.00     0.101 C 
ATOM     18  N   UNL     1     -45.639  52.339 -96.866  1.00  0.00    -0.296 N 
ATOM     19  O   UNL     1     -44.683  54.138 -97.854  1.00  0.00    -0.274 OA
ATOM     20  C   UNL     1     -46.160  51.638 -95.806  1.00  0.00     0.226 C 
ATOM     21  O   UNL     1     -46.262  50.415 -95.848  1.00  0.00    -0.275 OA
ATOM     22  H   UNL     1     -45.290  51.774 -97.628  1.00  0.00     0.172 HD
ENDBRANCH  13  14
ENDBRANCH   1  13
TORSDOF 4
ENDMDL
MODEL 5
REMARK minimizedAffinity -8.20006561
REMARK CNNscore 0.924252212
REMARK CNNaffinity 6.57796431
REMARK SMILES CC(=O)Nc1ccccc1SC[C@@H]1CCC(=O)NC1=O
REMARK SMILES IDX 11 1 10 2 5 3 6 4 7 5 9 6 8 7 4 8 2 9 3 10 1 11 12 13 13 14
REMARK SMILES IDX 14 15 19 16 15 17 18 18 20 19 16 20 17 21
REMARK H PARENT 4 12 18 22
ROOT
ATOM      1  S   UNL     1     -44.624  56.456 -93.989  1.00  0.00    -0.123 SA
ENDROOT
BRANCH   1   2
ATOM      2  C   UNL     1     -45.753  57.843 -93.846  1.00  0.00     0.031 A 
ATOM      3  C   UNL     1     -45.471  58.973 -93.045  1.00  0.00     0.054 A 
ATOM      4  C   UNL     1     -46.415  60.005 -92.992  1.00  0.00     0.027 A 
ATOM      5  C   UNL     1     -47.612  59.920 -93.710  1.00  0.00     0.002 A 
ATOM      6  C   UNL     1     -46.960  57.763 -94.554  1.00  0.00     0.017 A 
ATOM      7  C   UNL     1     -47.887  58.802 -94.488  1.00  0.00     0.001 A 
BRANCH   3   8
ATOM      8  N   UNL     1     -44.251  59.011 -92.322  1.00  0.00    -0.325 N 
ATOM      9  C   UNL     1     -44.075  59.110 -90.955  1.00  0.00     0.221 C 
ATOM     10  O   UNL     1     -44.951  59.242 -90.107  1.00  0.00    -0.275 OA
ATOM     11  C   UNL     1     -42.623  59.068 -90.554  1.00  0.00     0.114 C 
ATOM     12  H   UNL     1     -43.405  58.983 -92.889  1.00  0.00     0.169 HD
ENDBRANCH   3   8
ENDBRANCH   1   2
BRANCH   1  13
ATOM     13  C   UNL     1     -45.031  55.934 -95.698  1.00  0.00     0.088 C 
BRANCH  13  14
ATOM     14  C   UNL     1     -45.765  54.590 -95.771  1.00  0.00     0.089 C 
ATOM     15  C   UNL     1     -45.742  53.793 -94.466  1.00  0.00     0.024 C 
ATOM     16  C   UNL     1     -45.244  53.729 -96.912  1.00  0.00     0.230 C 
ATOM     17  C   UNL     1     -46.590  52.538 -94.627  1.00  0.00     0.101 C 
ATOM     18  N   UNL     1     -45.589  52.400 -96.863  1.00  0.00    -0.296 N 
ATOM     19  O   UNL     1     -44.592  54.175 -97.854  1.00  0.00    -0.274 OA
ATOM     20  C   UNL     1     -46.126  51.713 -95.802  1.00  0.00     0.226 C 
ATOM     21  O   UNL     1     -46.256  50.493 -95.841  1.00  0.00    -0.275 OA
ATOM     22  H   UNL     1     -45.251  51.825 -97.623  1.00  0.00     0.172 HD
ENDBRANCH  13  14
ENDBRANCH   1  13
TORSDOF 4
ENDMDL
MODEL 6
REMARK minimizedAffinity -7.98398113
REMARK CNNscore 0.890544415
REMARK CNNaffinity 6.51517296
REMARK SMILES CC(=O)Nc1ccccc1SC[C@@H]1CCC(=O)NC1=O
REMARK SMILES IDX 11 1 10 2 5 3 6 4 7 5 9 6 8 7 4 8 2 9 3 10 1 11 12 13 13 14
REMARK SMILES IDX 14 15 19 16 15 17 18 18 20 19 16 20 17 21
REMARK H PARENT 4 12 18 22
ROOT
ATOM      1  S   UNL     1     -46.371  56.883 -94.598  1.00  0.00    -0.123 SA
ENDROOT
BRANCH   1   2
ATOM      2  C   UNL     1     -45.203  58.245 -94.553  1.00  0.00     0.031 A 
ATOM      3  C   UNL     1     -45.419  59.405 -93.775  1.00  0.00     0.054 A 
ATOM      4  C   UNL     1     -44.453  60.418 -93.806  1.00  0.00     0.027 A 
ATOM      5  C   UNL     1     -43.304  60.289 -94.593  1.00  0.00     0.002 A 
ATOM      6  C   UNL     1     -44.053  58.130 -95.346  1.00  0.00     0.017 A 
ATOM      7  C   UNL     1     -43.103  59.150 -95.363  1.00  0.00     0.001 A 
BRANCH   3   8
ATOM      8  N   UNL     1     -46.605  59.500 -93.003  1.00  0.00    -0.325 N 
ATOM      9  C   UNL     1     -46.719  59.667 -91.636  1.00  0.00     0.221 C 
ATOM     10  O   UNL     1     -45.805  59.710 -90.820  1.00  0.00    -0.275 OA
ATOM     11  C   UNL     1     -48.153  59.776 -91.185  1.00  0.00     0.114 C 
ATOM     12  H   UNL     1     -47.475  59.411 -93.524  1.00  0.00     0.169 HD
ENDBRANCH   3   8
ENDBRANCH   1   2
BRANCH   1  13
ATOM     13  C   UNL     1     -45.315  55.632 -95.422  1.00  0.00     0.088 C 
BRANCH  13  14
ATOM     14  C   UNL     1     -46.000  54.271 -95.599  1.00  0.00     0.089 C 
ATOM     15  C   UNL     1     -46.086  53.442 -94.316  1.00  0.00     0.024 C 
ATOM     16  C   UNL     1     -45.343  53.453 -96.700  1.00  0.00     0.230 C 
ATOM     17  C   UNL     1     -46.877  52.171 -94.589  1.00  0.00     0.101 C 
ATOM     18  N   UNL     1     -45.654  52.115 -96.716  1.00  0.00    -0.296 N 
ATOM     19  O   UNL     1     -44.614  53.939 -97.562  1.00  0.00    -0.274 OA
ATOM     20  C   UNL     1     -46.275  51.387 -95.730  1.00  0.00     0.226 C 
ATOM     21  O   UNL     1     -46.365  50.166 -95.809  1.00  0.00    -0.275 OA
ATOM     22  H   UNL     1     -45.225  51.568 -97.451  1.00  0.00     0.172 HD
ENDBRANCH  13  14
ENDBRANCH   1  13
TORSDOF 4
ENDMDL
MODEL 7
REMARK minimizedAffinity -6.14531803
REMARK CNNscore 0.365727305
REMARK CNNaffinity 5.16481733
REMARK SMILES CC(=O)Nc1ccccc1SC[C@@H]1CCC(=O)NC1=O
REMARK SMILES IDX 11 1 10 2 5 3 6 4 7 5 9 6 8 7 4 8 2 9 3 10 1 11 12 13 13 14
REMARK SMILES IDX 14 15 19 16 15 17 18 18 20 19 16 20 17 21
REMARK H PARENT 4 12 18 22
ROOT
ATOM      1  S   UNL     1     -44.564  57.215 -93.108  1.00  0.00    -0.123 SA
ENDROOT
BRANCH   1   2
ATOM      2  C   UNL     1     -44.664  57.658 -94.844  1.00  0.00     0.031 A 
ATOM      3  C   UNL     1     -45.359  56.871 -95.790  1.00  0.00     0.054 A 
ATOM      4  C   UNL     1     -45.378  57.294 -97.124  1.00  0.00     0.027 A 
ATOM      5  C   UNL     1     -44.721  58.465 -97.515  1.00  0.00     0.002 A 
ATOM      6  C   UNL     1     -44.000  58.825 -95.247  1.00  0.00     0.017 A 
ATOM      7  C   UNL     1     -44.032  59.229 -96.580  1.00  0.00     0.001 A 
BRANCH   3   8
ATOM      8  N   UNL     1     -45.999  55.683 -95.352  1.00  0.00    -0.325 N 
ATOM      9  C   UNL     1     -45.580  54.378 -95.526  1.00  0.00     0.221 C 
ATOM     10  O   UNL     1     -44.594  53.997 -96.148  1.00  0.00    -0.275 OA
ATOM     11  C   UNL     1     -46.503  53.382 -94.872  1.00  0.00     0.114 C 
ATOM     12  H   UNL     1     -46.886  55.815 -94.870  1.00  0.00     0.169 HD
ENDBRANCH   3   8
ENDBRANCH   1   2
BRANCH   1  13
ATOM     13  C   UNL     1     -44.250  58.880 -92.409  1.00  0.00     0.088 C 
BRANCH  13  14
ATOM     14  C   UNL     1     -43.165  58.896 -91.324  1.00  0.00     0.089 C 
ATOM     15  C   UNL     1     -43.680  59.253 -89.929  1.00  0.00     0.024 C 
ATOM     16  C   UNL     1     -42.012  59.815 -91.700  1.00  0.00     0.230 C 
ATOM     17  C   UNL     1     -42.543  59.130 -88.925  1.00  0.00     0.101 C 
ATOM     18  N   UNL     1     -41.164  60.158 -90.675  1.00  0.00    -0.296 N 
ATOM     19  O   UNL     1     -41.802  60.203 -92.847  1.00  0.00    -0.274 OA
ATOM     20  C   UNL     1     -41.364  59.982 -89.328  1.00  0.00     0.226 C 
ATOM     21  O   UNL     1     -40.590  60.465 -88.507  1.00  0.00    -0.275 OA
ATOM     22  H   UNL     1     -40.392  60.763 -90.922  1.00  0.00     0.172 HD
ENDBRANCH  13  14
ENDBRANCH   1  13
TORSDOF 4
ENDMDL
MODEL 8
REMARK minimizedAffinity -5.79565287
REMARK CNNscore 0.291108757
REMARK CNNaffinity 4.835464
REMARK SMILES CC(=O)Nc1ccccc1SC[C@@H]1CCC(=O)NC1=O
REMARK SMILES IDX 11 1 10 2 5 3 6 4 7 5 9 6 8 7 4 8 2 9 3 10 1 11 12 13 13 14
REMARK SMILES IDX 14 15 19 16 15 17 18 18 20 19 16 20 17 21
REMARK H PARENT 4 12 18 22
ROOT
ATOM      1  S   UNL     1     -44.218  56.942 -93.346  1.00  0.00    -0.123 SA
ENDROOT
BRANCH   1   2
ATOM      2  C   UNL     1     -44.461  57.499 -95.035  1.00  0.00     0.031 A 
ATOM      3  C   UNL     1     -45.317  56.830 -95.939  1.00  0.00     0.054 A 
ATOM      4  C   UNL     1     -45.439  57.335 -97.238  1.00  0.00     0.027 A 
ATOM      5  C   UNL     1     -44.729  58.473 -97.636  1.00  0.00     0.002 A 
ATOM      6  C   UNL     1     -43.745  58.631 -95.446  1.00  0.00     0.017 A 
ATOM      7  C   UNL     1     -43.882  59.119 -96.744  1.00  0.00     0.001 A 
BRANCH   3   8
ATOM      8  N   UNL     1     -46.007  55.673 -95.498  1.00  0.00    -0.325 N 
ATOM      9  C   UNL     1     -45.584  54.358 -95.552  1.00  0.00     0.221 C 
ATOM     10  O   UNL     1     -44.545  53.938 -96.049  1.00  0.00    -0.275 OA
ATOM     11  C   UNL     1     -46.576  53.405 -94.935  1.00  0.00     0.114 C 
ATOM     12  H   UNL     1     -46.936  55.835 -95.114  1.00  0.00     0.169 HD
ENDBRANCH   3   8
ENDBRANCH   1   2
BRANCH   1  13
ATOM     13  C   UNL     1     -44.525  58.527 -92.478  1.00  0.00     0.088 C 
BRANCH  13  14
ATOM     14  C   UNL     1     -45.585  59.404 -93.158  1.00  0.00     0.089 C 
ATOM     15  C   UNL     1     -45.344  60.906 -93.006  1.00  0.00     0.024 C 
ATOM     16  C   UNL     1     -46.988  59.054 -92.685  1.00  0.00     0.230 C 
ATOM     17  C   UNL     1     -46.390  61.668 -93.809  1.00  0.00     0.101 C 
ATOM     18  N   UNL     1     -47.962  59.981 -92.969  1.00  0.00    -0.296 N 
ATOM     19  O   UNL     1     -47.270  57.998 -92.124  1.00  0.00    -0.274 OA
ATOM     20  C   UNL     1     -47.787  61.274 -93.398  1.00  0.00     0.226 C 
ATOM     21  O   UNL     1     -48.739  62.046 -93.478  1.00  0.00    -0.275 OA
ATOM     22  H   UNL     1     -48.897  59.750 -92.663  1.00  0.00     0.172 HD
ENDBRANCH  13  14
ENDBRANCH   1  13
TORSDOF 4
ENDMDL
MODEL 9
REMARK minimizedAffinity -6.11263084
REMARK CNNscore 0.271298587
REMARK CNNaffinity 5.19479036
REMARK SMILES CC(=O)Nc1ccccc1SC[C@@H]1CCC(=O)NC1=O
REMARK SMILES IDX 11 1 10 2 5 3 6 4 7 5 9 6 8 7 4 8 2 9 3 10 1 11 12 13 13 14
REMARK SMILES IDX 14 15 19 16 15 17 18 18 20 19 16 20 17 21
REMARK H PARENT 4 12 18 22
ROOT
ATOM      1  S   UNL     1     -44.416  56.928 -93.297  1.00  0.00    -0.123 SA
ENDROOT
BRANCH   1   2
ATOM      2  C   UNL     1     -44.626  57.415 -95.011  1.00  0.00     0.031 A 
ATOM      3  C   UNL     1     -45.400  56.664 -95.925  1.00  0.00     0.054 A 
ATOM      4  C   UNL     1     -45.502  57.120 -97.244  1.00  0.00     0.027 A 
ATOM      5  C   UNL     1     -44.851  58.289 -97.652  1.00  0.00     0.002 A 
ATOM      6  C   UNL     1     -43.968  58.579 -95.432  1.00  0.00     0.017 A 
ATOM      7  C   UNL     1     -44.084  59.017 -96.750  1.00  0.00     0.001 A 
BRANCH   3   8
ATOM      8  N   UNL     1     -46.031  55.478 -95.472  1.00  0.00    -0.325 N 
ATOM      9  C   UNL     1     -45.571  54.178 -95.570  1.00  0.00     0.221 C 
ATOM     10  O   UNL     1     -44.544  53.800 -96.123  1.00  0.00    -0.275 OA
ATOM     11  C   UNL     1     -46.501  53.184 -94.923  1.00  0.00     0.114 C 
ATOM     12  H   UNL     1     -46.946  55.604 -95.042  1.00  0.00     0.169 HD
ENDBRANCH   3   8
ENDBRANCH   1   2
BRANCH   1  13
ATOM     13  C   UNL     1     -45.807  57.869 -92.563  1.00  0.00     0.088 C 
BRANCH  13  14
ATOM     14  C   UNL     1     -45.359  59.043 -91.684  1.00  0.00     0.089 C 
ATOM     15  C   UNL     1     -44.364  58.659 -90.588  1.00  0.00     0.024 C 
ATOM     16  C   UNL     1     -46.547  59.769 -91.072  1.00  0.00     0.230 C 
ATOM     17  C   UNL     1     -43.910  59.915 -89.857  1.00  0.00     0.101 C 
ATOM     18  N   UNL     1     -46.258  60.608 -90.022  1.00  0.00    -0.296 N 
ATOM     19  O   UNL     1     -47.696  59.667 -91.497  1.00  0.00    -0.274 OA
ATOM     20  C   UNL     1     -45.088  60.682 -89.307  1.00  0.00     0.226 C 
ATOM     21  O   UNL     1     -45.008  61.377 -88.298  1.00  0.00    -0.275 OA
ATOM     22  H   UNL     1     -47.044  61.099 -89.617  1.00  0.00     0.172 HD
ENDBRANCH  13  14
ENDBRANCH   1  13
TORSDOF 4
ENDMDL
