MODEL 1
REMARK minimizedAffinity -9.20184517
REMARK CNNscore 0.967346311
REMARK CNNaffinity 6.600317
REMARK SMILES CC(=O)Nc1sccc1C(=O)N[C@H]1CCC(=O)NC1=O
REMARK SMILES IDX 5 1 6 2 7 3 8 4 9 5 4 6 2 7 3 8 1 9 10 11 11 12 12 13 13 15
REMARK SMILES IDX 14 16 19 17 15 18 18 19 20 20 16 21 17 22
REMARK H PARENT 4 10 12 14 18 23
ROOT
ATOM      1  C   UNL     1     -45.589  58.933 -94.728  1.00  0.00     0.108 A 
ATOM      2  S   UNL     1     -45.388  60.460 -95.444  1.00  0.00    -0.126 S 
ATOM      3  C   UNL     1     -45.817  59.877 -96.985  1.00  0.00     0.068 A 
ATOM      4  C   UNL     1     -46.109  58.532 -96.958  1.00  0.00     0.028 A 
ATOM      5  C   UNL     1     -45.972  57.958 -95.644  1.00  0.00     0.074 A 
ENDROOT
BRANCH   1   6
ATOM      6  N   UNL     1     -45.385  58.736 -93.371  1.00  0.00    -0.317 N 
ATOM      7  C   UNL     1     -44.479  57.887 -92.765  1.00  0.00     0.221 C 
ATOM      8  O   UNL     1     -43.694  57.113 -93.301  1.00  0.00    -0.275 OA
ATOM      9  C   UNL     1     -44.560  57.967 -91.259  1.00  0.00     0.114 C 
ATOM     10  H   UNL     1     -45.991  59.294 -92.769  1.00  0.00     0.170 HD
ENDBRANCH   1   6
BRANCH   5  11
ATOM     11  C   UNL     1     -46.198  56.563 -95.247  1.00  0.00     0.254 C 
ATOM     12  O   UNL     1     -47.097  56.242 -94.470  1.00  0.00    -0.269 OA
ATOM     13  N   UNL     1     -45.332  55.638 -95.781  1.00  0.00    -0.340 N 
ATOM     14  H   UNL     1     -44.475  55.959 -96.218  1.00  0.00     0.164 HD
BRANCH  13  15
ATOM     15  C   UNL     1     -45.348  54.245 -95.358  1.00  0.00     0.172 C 
ATOM     16  C   UNL     1     -46.727  53.798 -94.883  1.00  0.00     0.045 C 
ATOM     17  C   UNL     1     -44.926  53.376 -96.546  1.00  0.00     0.249 C 
ATOM     18  C   UNL     1     -46.679  52.326 -94.502  1.00  0.00     0.103 C 
ATOM     19  N   UNL     1     -45.208  52.037 -96.445  1.00  0.00    -0.295 N 
ATOM     20  O   UNL     1     -44.357  53.837 -97.535  1.00  0.00    -0.272 OA
ATOM     21  C   UNL     1     -46.174  51.478 -95.646  1.00  0.00     0.226 C 
ATOM     22  O   UNL     1     -46.576  50.337 -95.847  1.00  0.00    -0.275 OA
ATOM     23  H   UNL     1     -44.941  51.474 -97.241  1.00  0.00     0.172 HD
ENDBRANCH  13  15
ENDBRANCH   5  11
TORSDOF 3
ENDMDL
MODEL 2
REMARK minimizedAffinity -8.98373413
REMARK CNNscore 0.937628329
REMARK CNNaffinity 6.41179276
REMARK SMILES CC(=O)Nc1sccc1C(=O)N[C@H]1CCC(=O)NC1=O
REMARK SMILES IDX 5 1 6 2 7 3 8 4 9 5 4 6 2 7 3 8 1 9 10 11 11 12 12 13 13 15
REMARK SMILES IDX 14 16 19 17 15 18 18 19 20 20 16 21 17 22
REMARK H PARENT 4 10 12 14 18 23
ROOT
ATOM      1  C   UNL     1     -45.601  58.327 -96.890  1.00  0.00     0.108 A 
ATOM      2  S   UNL     1     -45.323  59.999 -96.990  1.00  0.00    -0.126 S 
ATOM      3  C   UNL     1     -45.531  60.209 -95.313  1.00  0.00     0.068 A 
ATOM      4  C   UNL     1     -45.812  59.019 -94.680  1.00  0.00     0.028 A 
ATOM      5  C   UNL     1     -45.866  57.903 -95.591  1.00  0.00     0.074 A 
ENDROOT
BRANCH   1   6
ATOM      6  N   UNL     1     -45.552  57.515 -98.013  1.00  0.00    -0.317 N 
ATOM      7  C   UNL     1     -45.902  57.841 -99.309  1.00  0.00     0.221 C 
ATOM      8  O   UNL     1     -46.357  58.900 -99.725  1.00  0.00    -0.275 OA
ATOM      9  C   UNL     1     -45.695  56.678-100.251  1.00  0.00     0.114 C 
ATOM     10  H   UNL     1     -45.215  56.569 -97.833  1.00  0.00     0.170 HD
ENDBRANCH   1   6
BRANCH   5  11
ATOM     11  C   UNL     1     -46.141  56.498 -95.271  1.00  0.00     0.254 C 
ATOM     12  O   UNL     1     -47.154  56.152 -94.664  1.00  0.00    -0.269 OA
ATOM     13  N   UNL     1     -45.189  55.591 -95.674  1.00  0.00    -0.340 N 
ATOM     14  H   UNL     1     -44.274  55.928 -95.952  1.00  0.00     0.164 HD
BRANCH  13  15
ATOM     15  C   UNL     1     -45.262  54.189 -95.292  1.00  0.00     0.172 C 
ATOM     16  C   UNL     1     -46.667  53.776 -94.865  1.00  0.00     0.045 C 
ATOM     17  C   UNL     1     -44.839  53.340 -96.495  1.00  0.00     0.249 C 
ATOM     18  C   UNL     1     -46.678  52.292 -94.527  1.00  0.00     0.103 C 
ATOM     19  N   UNL     1     -45.169  52.009 -96.440  1.00  0.00    -0.295 N 
ATOM     20  O   UNL     1     -44.229  53.810 -97.455  1.00  0.00    -0.272 OA
ATOM     21  C   UNL     1     -46.172  51.460 -95.682  1.00  0.00     0.226 C 
ATOM     22  O   UNL     1     -46.607  50.340 -95.927  1.00  0.00    -0.275 OA
ATOM     23  H   UNL     1     -44.900  51.460 -97.246  1.00  0.00     0.172 HD
ENDBRANCH  13  15
ENDBRANCH   5  11
TORSDOF 3
ENDMDL
MODEL 3
REMARK minimizedAffinity -7.26907158
REMARK CNNscore 0.60608691
REMARK CNNaffinity 5.7047267
REMARK SMILES CC(=O)Nc1sccc1C(=O)N[C@H]1CCC(=O)NC1=O
REMARK SMILES IDX 5 1 6 2 7 3 8 4 9 5 4 6 2 7 3 8 1 9 10 11 11 12 12 13 13 15
REMARK SMILES IDX 14 16 19 17 15 18 18 19 20 20 16 21 17 22
REMARK H PARENT 4 10 12 14 18 23
ROOT
ATOM      1  C   UNL     1     -46.424  59.723 -94.278  1.00  0.00     0.108 A 
ATOM      2  S   UNL     1     -47.030  61.197 -94.863  1.00  0.00    -0.126 S 
ATOM      3  C   UNL     1     -48.041  60.420 -95.991  1.00  0.00     0.068 A 
ATOM      4  C   UNL     1     -47.919  59.051 -95.927  1.00  0.00     0.028 A 
ATOM      5  C   UNL     1     -46.968  58.622 -94.933  1.00  0.00     0.074 A 
ENDROOT
BRANCH   1   6
ATOM      6  N   UNL     1     -45.493  59.677 -93.252  1.00  0.00    -0.317 N 
ATOM      7  C   UNL     1     -44.117  59.598 -93.360  1.00  0.00     0.221 C 
ATOM      8  O   UNL     1     -43.443  59.519 -94.380  1.00  0.00    -0.275 OA
ATOM      9  C   UNL     1     -43.452  59.579 -92.004  1.00  0.00     0.114 C 
ATOM     10  H   UNL     1     -45.897  59.705 -92.315  1.00  0.00     0.170 HD
ENDBRANCH   1   6
BRANCH   5  11
ATOM     11  C   UNL     1     -46.584  57.246 -94.594  1.00  0.00     0.254 C 
ATOM     12  O   UNL     1     -46.465  56.869 -93.429  1.00  0.00    -0.269 OA
ATOM     13  N   UNL     1     -46.347  56.408 -95.658  1.00  0.00    -0.340 N 
ATOM     14  H   UNL     1     -46.224  56.808 -96.582  1.00  0.00     0.164 HD
BRANCH  13  15
ATOM     15  C   UNL     1     -45.817  55.067 -95.468  1.00  0.00     0.172 C 
ATOM     16  C   UNL     1     -46.851  54.111 -94.882  1.00  0.00     0.045 C 
ATOM     17  C   UNL     1     -45.362  54.531 -96.830  1.00  0.00     0.249 C 
ATOM     18  C   UNL     1     -46.244  52.722 -94.755  1.00  0.00     0.103 C 
ATOM     19  N   UNL     1     -45.158  53.177 -96.908  1.00  0.00    -0.295 N 
ATOM     20  O   UNL     1     -45.178  55.264 -97.801  1.00  0.00    -0.272 OA
ATOM     21  C   UNL     1     -45.711  52.232 -96.081  1.00  0.00     0.226 C 
ATOM     22  O   UNL     1     -45.740  51.049 -96.406  1.00  0.00    -0.275 OA
ATOM     23  H   UNL     1     -44.874  52.831 -97.815  1.00  0.00     0.172 HD
ENDBRANCH  13  15
ENDBRANCH   5  11
TORSDOF 3
ENDMDL
MODEL 4
REMARK minimizedAffinity -6.32497835
REMARK CNNscore 0.332139879
REMARK CNNaffinity 5.24146795
REMARK SMILES CC(=O)Nc1sccc1C(=O)N[C@H]1CCC(=O)NC1=O
REMARK SMILES IDX 5 1 6 2 7 3 8 4 9 5 4 6 2 7 3 8 1 9 10 11 11 12 12 13 13 15
REMARK SMILES IDX 14 16 19 17 15 18 18 19 20 20 16 21 17 22
REMARK H PARENT 4 10 12 14 18 23
ROOT
ATOM      1  C   UNL     1     -45.826  55.937 -95.815  1.00  0.00     0.108 A 
ATOM      2  S   UNL     1     -45.499  55.889 -97.481  1.00  0.00    -0.126 S 
ATOM      3  C   UNL     1     -45.189  57.562 -97.544  1.00  0.00     0.068 A 
ATOM      4  C   UNL     1     -45.336  58.155 -96.310  1.00  0.00     0.028 A 
ATOM      5  C   UNL     1     -45.718  57.218 -95.284  1.00  0.00     0.074 A 
ENDROOT
BRANCH   1   6
ATOM      6  N   UNL     1     -46.157  54.790 -95.108  1.00  0.00    -0.317 N 
ATOM      7  C   UNL     1     -46.109  53.481 -95.547  1.00  0.00     0.221 C 
ATOM      8  O   UNL     1     -45.797  53.068 -96.658  1.00  0.00    -0.275 OA
ATOM      9  C   UNL     1     -46.542  52.516 -94.469  1.00  0.00     0.114 C 
ATOM     10  H   UNL     1     -46.471  54.962 -94.153  1.00  0.00     0.170 HD
ENDBRANCH   1   6
BRANCH   5  11
ATOM     11  C   UNL     1     -45.963  57.495 -93.863  1.00  0.00     0.254 C 
ATOM     12  O   UNL     1     -47.020  57.191 -93.312  1.00  0.00    -0.269 OA
ATOM     13  N   UNL     1     -44.948  58.133 -93.190  1.00  0.00    -0.340 N 
ATOM     14  H   UNL     1     -44.205  58.573 -93.722  1.00  0.00     0.164 HD
BRANCH  13  15
ATOM     15  C   UNL     1     -45.115  58.599 -91.822  1.00  0.00     0.172 C 
ATOM     16  C   UNL     1     -43.867  58.373 -90.975  1.00  0.00     0.045 C 
ATOM     17  C   UNL     1     -45.425  60.099 -91.860  1.00  0.00     0.249 C 
ATOM     18  C   UNL     1     -44.097  58.926 -89.576  1.00  0.00     0.103 C 
ATOM     19  N   UNL     1     -45.276  60.776 -90.676  1.00  0.00    -0.295 N 
ATOM     20  O   UNL     1     -45.796  60.673 -92.883  1.00  0.00    -0.272 OA
ATOM     21  C   UNL     1     -44.494  60.383 -89.618  1.00  0.00     0.226 C 
ATOM     22  O   UNL     1     -44.165  61.181 -88.747  1.00  0.00    -0.275 OA
ATOM     23  H   UNL     1     -45.466  61.769 -90.714  1.00  0.00     0.172 HD
ENDBRANCH  13  15
ENDBRANCH   5  11
TORSDOF 3
ENDMDL
MODEL 5
REMARK minimizedAffinity -4.49080658
REMARK CNNscore 0.329143912
REMARK CNNaffinity 4.115273
REMARK SMILES CC(=O)Nc1sccc1C(=O)N[C@H]1CCC(=O)NC1=O
REMARK SMILES IDX 5 1 6 2 7 3 8 4 9 5 4 6 2 7 3 8 1 9 10 11 11 12 12 13 13 15
REMARK SMILES IDX 14 16 19 17 15 18 18 19 20 20 16 21 17 22
REMARK H PARENT 4 10 12 14 18 23
ROOT
ATOM      1  C   UNL     1     -46.398  59.789 -92.899  1.00  0.00     0.108 A 
ATOM      2  S   UNL     1     -47.890  60.445 -93.377  1.00  0.00    -0.126 S 
ATOM      3  C   UNL     1     -48.396  60.661 -91.766  1.00  0.00     0.068 A 
ATOM      4  C   UNL     1     -47.441  60.236 -90.870  1.00  0.00     0.028 A 
ATOM      5  C   UNL     1     -46.264  59.713 -91.516  1.00  0.00     0.074 A 
ENDROOT
BRANCH   1   6
ATOM      6  N   UNL     1     -45.449  59.393 -93.829  1.00  0.00    -0.317 N 
ATOM      7  C   UNL     1     -45.333  58.164 -94.449  1.00  0.00     0.221 C 
ATOM      8  O   UNL     1     -46.023  57.165 -94.282  1.00  0.00    -0.275 OA
ATOM      9  C   UNL     1     -44.166  58.132 -95.408  1.00  0.00     0.114 C 
ATOM     10  H   UNL     1     -44.765  60.113 -94.064  1.00  0.00     0.170 HD
ENDBRANCH   1   6
BRANCH   5  11
ATOM     11  C   UNL     1     -45.057  59.174 -90.879  1.00  0.00     0.254 C 
ATOM     12  O   UNL     1     -44.681  58.017 -91.067  1.00  0.00    -0.269 OA
ATOM     13  N   UNL     1     -44.381  60.033 -90.045  1.00  0.00    -0.340 N 
ATOM     14  H   UNL     1     -44.841  60.881 -89.733  1.00  0.00     0.164 HD
BRANCH  13  15
ATOM     15  C   UNL     1     -43.258  59.584 -89.236  1.00  0.00     0.172 C 
ATOM     16  C   UNL     1     -42.008  60.429 -89.459  1.00  0.00     0.045 C 
ATOM     17  C   UNL     1     -43.660  59.673 -87.761  1.00  0.00     0.249 C 
ATOM     18  C   UNL     1     -40.892  59.933 -88.551  1.00  0.00     0.103 C 
ATOM     19  N   UNL     1     -42.634  59.622 -86.851  1.00  0.00    -0.295 N 
ATOM     20  O   UNL     1     -44.832  59.774 -87.399  1.00  0.00    -0.272 OA
ATOM     21  C   UNL     1     -41.321  59.933 -87.102  1.00  0.00     0.226 C 
ATOM     22  O   UNL     1     -40.543  60.171 -86.185  1.00  0.00    -0.275 OA
ATOM     23  H   UNL     1     -42.908  59.697 -85.880  1.00  0.00     0.172 HD
ENDBRANCH  13  15
ENDBRANCH   5  11
TORSDOF 3
ENDMDL
MODEL 6
REMARK minimizedAffinity -5.01426601
REMARK CNNscore 0.286367089
REMARK CNNaffinity 4.34787083
REMARK SMILES CC(=O)Nc1sccc1C(=O)N[C@H]1CCC(=O)NC1=O
REMARK SMILES IDX 5 1 6 2 7 3 8 4 9 5 4 6 2 7 3 8 1 9 10 11 11 12 12 13 13 15
REMARK SMILES IDX 14 16 19 17 15 18 18 19 20 20 16 21 17 22
REMARK H PARENT 4 10 12 14 18 23
ROOT
ATOM      1  C   UNL     1     -46.491  60.906 -91.667  1.00  0.00     0.108 A 
ATOM      2  S   UNL     1     -46.801  62.568 -91.816  1.00  0.00    -0.126 S 
ATOM      3  C   UNL     1     -47.654  62.355 -93.274  1.00  0.00     0.068 A 
ATOM      4  C   UNL     1     -47.702  61.031 -93.648  1.00  0.00     0.028 A 
ATOM      5  C   UNL     1     -47.018  60.165 -92.721  1.00  0.00     0.074 A 
ENDROOT
BRANCH   1   6
ATOM      6  N   UNL     1     -45.788  60.392 -90.587  1.00  0.00    -0.317 N 
ATOM      7  C   UNL     1     -44.421  60.230 -90.467  1.00  0.00     0.221 C 
ATOM      8  O   UNL     1     -43.555  60.474 -91.299  1.00  0.00    -0.275 OA
ATOM      9  C   UNL     1     -44.046  59.644 -89.127  1.00  0.00     0.114 C 
ATOM     10  H   UNL     1     -46.374  60.107 -89.802  1.00  0.00     0.170 HD
ENDBRANCH   1   6
BRANCH   5  11
ATOM     11  C   UNL     1     -46.865  58.708 -92.802  1.00  0.00     0.254 C 
ATOM     12  O   UNL     1     -47.266  57.958 -91.912  1.00  0.00    -0.269 OA
ATOM     13  N   UNL     1     -46.230  58.230 -93.924  1.00  0.00    -0.340 N 
ATOM     14  H   UNL     1     -45.712  58.877 -94.509  1.00  0.00     0.164 HD
BRANCH  13  15
ATOM     15  C   UNL     1     -45.880  56.825 -94.062  1.00  0.00     0.172 C 
ATOM     16  C   UNL     1     -46.832  56.078 -94.992  1.00  0.00     0.045 C 
ATOM     17  C   UNL     1     -44.460  56.735 -94.631  1.00  0.00     0.249 C 
ATOM     18  C   UNL     1     -46.380  54.632 -95.125  1.00  0.00     0.103 C 
ATOM     19  N   UNL     1     -44.092  55.518 -95.146  1.00  0.00    -0.295 N 
ATOM     20  O   UNL     1     -43.683  57.689 -94.622  1.00  0.00    -0.272 OA
ATOM     21  C   UNL     1     -44.947  54.545 -95.597  1.00  0.00     0.226 C 
ATOM     22  O   UNL     1     -44.547  53.642 -96.325  1.00  0.00    -0.275 OA
ATOM     23  H   UNL     1     -43.158  55.473 -95.534  1.00  0.00     0.172 HD
ENDBRANCH  13  15
ENDBRANCH   5  11
TORSDOF 3
ENDMDL
MODEL 7
REMARK minimizedAffinity -4.96335793
REMARK CNNscore 0.268593103
REMARK CNNaffinity 4.15196562
REMARK SMILES CC(=O)Nc1sccc1C(=O)N[C@H]1CCC(=O)NC1=O
REMARK SMILES IDX 5 1 6 2 7 3 8 4 9 5 4 6 2 7 3 8 1 9 10 11 11 12 12 13 13 15
REMARK SMILES IDX 14 16 19 17 15 18 18 19 20 20 16 21 17 22
REMARK H PARENT 4 10 12 14 18 23
ROOT
ATOM      1  C   UNL     1     -44.908  59.812 -97.192  1.00  0.00     0.108 A 
ATOM      2  S   UNL     1     -45.668  59.162 -98.565  1.00  0.00    -0.126 S 
ATOM      3  C   UNL     1     -45.519  57.568 -97.985  1.00  0.00     0.068 A 
ATOM      4  C   UNL     1     -44.894  57.528 -96.759  1.00  0.00     0.028 A 
ATOM      5  C   UNL     1     -44.521  58.835 -96.280  1.00  0.00     0.074 A 
ENDROOT
BRANCH   1   6
ATOM      6  N   UNL     1     -44.724  61.178 -97.044  1.00  0.00    -0.317 N 
ATOM      7  C   UNL     1     -45.353  62.026 -96.152  1.00  0.00     0.221 C 
ATOM      8  O   UNL     1     -46.223  61.750 -95.334  1.00  0.00    -0.275 OA
ATOM      9  C   UNL     1     -44.868  63.448 -96.298  1.00  0.00     0.114 C 
ATOM     10  H   UNL     1     -44.038  61.582 -97.682  1.00  0.00     0.170 HD
ENDBRANCH   1   6
BRANCH   5  11
ATOM     11  C   UNL     1     -43.840  59.169 -95.024  1.00  0.00     0.254 C 
ATOM     12  O   UNL     1     -42.624  59.351 -94.967  1.00  0.00    -0.269 OA
ATOM     13  N   UNL     1     -44.640  59.248 -93.908  1.00  0.00    -0.340 N 
ATOM     14  H   UNL     1     -45.579  58.866 -93.947  1.00  0.00     0.164 HD
BRANCH  13  15
ATOM     15  C   UNL     1     -44.078  59.423 -92.578  1.00  0.00     0.172 C 
ATOM     16  C   UNL     1     -44.965  60.282 -91.682  1.00  0.00     0.045 C 
ATOM     17  C   UNL     1     -43.917  58.041 -91.937  1.00  0.00     0.249 C 
ATOM     18  C   UNL     1     -44.341  60.383 -90.298  1.00  0.00     0.103 C 
ATOM     19  N   UNL     1     -43.729  58.023 -90.578  1.00  0.00    -0.295 N 
ATOM     20  O   UNL     1     -43.942  57.000 -92.594  1.00  0.00    -0.272 OA
ATOM     21  C   UNL     1     -44.095  59.016 -89.704  1.00  0.00     0.226 C 
ATOM     22  O   UNL     1     -44.188  58.794 -88.501  1.00  0.00    -0.275 OA
ATOM     23  H   UNL     1     -43.640  57.105 -90.162  1.00  0.00     0.172 HD
ENDBRANCH  13  15
ENDBRANCH   5  11
TORSDOF 3
ENDMDL
MODEL 8
REMARK minimizedAffinity -6.97806692
REMARK CNNscore 0.26011318
REMARK CNNaffinity 4.35275412
REMARK SMILES CC(=O)Nc1sccc1C(=O)N[C@H]1CCC(=O)NC1=O
REMARK SMILES IDX 5 1 6 2 7 3 8 4 9 5 4 6 2 7 3 8 1 9 10 11 11 12 12 13 13 15
REMARK SMILES IDX 14 16 19 17 15 18 18 19 20 20 16 21 17 22
REMARK H PARENT 4 10 12 14 18 23
ROOT
ATOM      1  C   UNL     1     -45.474  55.812 -96.529  1.00  0.00     0.108 A 
ATOM      2  S   UNL     1     -45.057  54.358 -97.299  1.00  0.00    -0.126 S 
ATOM      3  C   UNL     1     -45.709  53.416 -96.039  1.00  0.00     0.068 A 
ATOM      4  C   UNL     1     -46.238  54.200 -95.038  1.00  0.00     0.028 A 
ATOM      5  C   UNL     1     -46.102  55.610 -95.304  1.00  0.00     0.074 A 
ENDROOT
BRANCH   1   6
ATOM      6  N   UNL     1     -45.200  57.043 -97.106  1.00  0.00    -0.317 N 
ATOM      7  C   UNL     1     -45.368  57.416 -98.426  1.00  0.00     0.221 C 
ATOM      8  O   UNL     1     -45.761  56.728 -99.361  1.00  0.00    -0.275 OA
ATOM      9  C   UNL     1     -44.960  58.851 -98.656  1.00  0.00     0.114 C 
ATOM     10  H   UNL     1     -44.829  57.738 -96.458  1.00  0.00     0.170 HD
ENDBRANCH   1   6
BRANCH   5  11
ATOM     11  C   UNL     1     -46.545  56.727 -94.462  1.00  0.00     0.254 C 
ATOM     12  O   UNL     1     -47.723  57.080 -94.411  1.00  0.00    -0.269 OA
ATOM     13  N   UNL     1     -45.561  57.369 -93.746  1.00  0.00    -0.340 N 
ATOM     14  H   UNL     1     -44.590  57.208 -93.991  1.00  0.00     0.164 HD
BRANCH  13  15
ATOM     15  C   UNL     1     -45.836  58.581 -92.990  1.00  0.00     0.172 C 
ATOM     16  C   UNL     1     -47.027  58.422 -92.050  1.00  0.00     0.045 C 
ATOM     17  C   UNL     1     -44.593  58.925 -92.163  1.00  0.00     0.249 C 
ATOM     18  C   UNL     1     -47.225  59.708 -91.262  1.00  0.00     0.103 C 
ATOM     19  N   UNL     1     -44.777  59.822 -91.142  1.00  0.00    -0.295 N 
ATOM     20  O   UNL     1     -43.487  58.440 -92.397  1.00  0.00    -0.272 OA
ATOM     21  C   UNL     1     -45.969  60.098 -90.519  1.00  0.00     0.226 C 
ATOM     22  O   UNL     1     -45.995  60.656 -89.427  1.00  0.00    -0.275 OA
ATOM     23  H   UNL     1     -43.955  60.031 -90.591  1.00  0.00     0.172 HD
ENDBRANCH  13  15
ENDBRANCH   5  11
TORSDOF 3
ENDMDL
MODEL 9
REMARK minimizedAffinity -5.77938461
REMARK CNNscore 0.252943903
REMARK CNNaffinity 4.15823364
REMARK SMILES CC(=O)Nc1sccc1C(=O)N[C@H]1CCC(=O)NC1=O
REMARK SMILES IDX 5 1 6 2 7 3 8 4 9 5 4 6 2 7 3 8 1 9 10 11 11 12 12 13 13 15
REMARK SMILES IDX 14 16 19 17 15 18 18 19 20 20 16 21 17 22
REMARK H PARENT 4 10 12 14 18 23
ROOT
ATOM      1  C   UNL     1     -44.975  56.146 -96.180  1.00  0.00     0.108 A 
ATOM      2  S   UNL     1     -45.266  54.820 -97.199  1.00  0.00    -0.126 S 
ATOM      3  C   UNL     1     -45.307  53.729 -95.892  1.00  0.00     0.068 A 
ATOM      4  C   UNL     1     -45.099  54.366 -94.690  1.00  0.00     0.028 A 
ATOM      5  C   UNL     1     -44.893  55.784 -94.839  1.00  0.00     0.074 A 
ENDROOT
BRANCH   1   6
ATOM      6  N   UNL     1     -44.846  57.432 -96.682  1.00  0.00    -0.317 N 
ATOM      7  C   UNL     1     -45.200  57.891 -97.936  1.00  0.00     0.221 C 
ATOM      8  O   UNL     1     -45.669  57.251 -98.870  1.00  0.00    -0.275 OA
ATOM      9  C   UNL     1     -44.907  59.364 -98.094  1.00  0.00     0.114 C 
ATOM     10  H   UNL     1     -44.436  58.100 -96.028  1.00  0.00     0.170 HD
ENDBRANCH   1   6
BRANCH   5  11
ATOM     11  C   UNL     1     -44.641  56.770 -93.780  1.00  0.00     0.254 C 
ATOM     12  O   UNL     1     -43.765  56.607 -92.932  1.00  0.00    -0.269 OA
ATOM     13  N   UNL     1     -45.455  57.878 -93.783  1.00  0.00    -0.340 N 
ATOM     14  H   UNL     1     -46.303  57.865 -94.340  1.00  0.00     0.164 HD
BRANCH  13  15
ATOM     15  C   UNL     1     -45.414  58.857 -92.708  1.00  0.00     0.172 C 
ATOM     16  C   UNL     1     -45.167  60.272 -93.220  1.00  0.00     0.045 C 
ATOM     17  C   UNL     1     -46.758  58.823 -91.973  1.00  0.00     0.249 C 
ATOM     18  C   UNL     1     -45.183  61.245 -92.051  1.00  0.00     0.103 C 
ATOM     19  N   UNL     1     -47.030  59.896 -91.163  1.00  0.00    -0.295 N 
ATOM     20  O   UNL     1     -47.550  57.888 -92.086  1.00  0.00    -0.272 OA
ATOM     21  C   UNL     1     -46.472  61.145 -91.270  1.00  0.00     0.226 C 
ATOM     22  O   UNL     1     -46.992  62.116 -90.730  1.00  0.00    -0.275 OA
ATOM     23  H   UNL     1     -47.927  59.872 -90.695  1.00  0.00     0.172 HD
ENDBRANCH  13  15
ENDBRANCH   5  11
TORSDOF 3
ENDMDL
