MODEL 1
REMARK VINA RESULT:      -7.2      0.000      0.000
REMARK SMILES CC(=O)N[C@@H](CC(C)C)C(=O)Nc1ccc(C(=O)NS(=O)(=O)c2ccc(NCCSc3ccccc3)c([N+](=O)[O-])c2)cc1
REMARK SMILES IDX 17 1 18 2 19 3 16 5 13 6 14 7 43 8 15 9 42 10 12 11 10 12
REMARK SMILES IDX 11 13 5 15 4 16 2 17 3 18 1 19 6 21 7 22 8 23 9 24 20 25
REMARK SMILES IDX 21 26 22 27 23 28 24 29 41 30 25 31 37 32 26 33 38 34 39 35
REMARK SMILES IDX 40 36 27 37 28 39 29 40 30 41 31 42 32 43 36 44 33 45 35 46
REMARK SMILES IDX 34 47
REMARK H PARENT 19 4 12 14 4 20 27 38
ROOT
ATOM      1  C   UNL     1      -5.133   7.512  -5.516  1.00  0.00     0.264 C 
ATOM      2  O   UNL     1      -4.667   8.577  -5.144  1.00  0.00    -0.268 OA
ATOM      3  N   UNL     1      -6.501   7.220  -5.493  1.00  0.00    -0.245 N 
ATOM      4  H   UNL     1      -6.851   6.273  -5.592  1.00  0.00     0.183 HD
ENDROOT
BRANCH   1   5
ATOM      5  C   UNL     1      -4.247   6.409  -5.984  1.00  0.00     0.040 A 
ATOM      6  C   UNL     1      -2.533   4.298  -6.745  1.00  0.00     0.041 A 
ATOM      7  C   UNL     1      -2.164   5.186  -5.727  1.00  0.00     0.027 A 
ATOM      8  C   UNL     1      -3.754   4.492  -7.394  1.00  0.00     0.027 A 
ATOM      9  C   UNL     1      -3.012   6.234  -5.348  1.00  0.00     0.016 A 
ATOM     10  C   UNL     1      -4.608   5.539  -7.019  1.00  0.00     0.016 A 
BRANCH   6  11
ATOM     11  N   UNL     1      -1.630   3.261  -7.055  1.00  0.00    -0.324 N 
ATOM     12  C   UNL     1      -1.812   1.901  -6.848  1.00  0.00     0.246 C 
ATOM     13  O   UNL     1      -2.813   1.365  -6.375  1.00  0.00    -0.272 OA
ATOM     14  H   UNL     1      -0.714   3.551  -7.373  1.00  0.00     0.170 HD
BRANCH  12  15
ATOM     15  C   UNL     1      -0.621   1.048  -7.345  1.00  0.00     0.171 C 
BRANCH  15  16
ATOM     16  N   UNL     1       0.024   0.471  -6.169  1.00  0.00    -0.345 N 
ATOM     17  C   UNL     1       0.643   1.294  -5.257  1.00  0.00     0.217 C 
ATOM     18  O   UNL     1       0.846   2.489  -5.452  1.00  0.00    -0.275 OA
ATOM     19  C   UNL     1       1.063   0.606  -3.986  1.00  0.00     0.114 C 
ATOM     20  H   UNL     1      -0.440  -0.346  -5.787  1.00  0.00     0.164 HD
ENDBRANCH  15  16
BRANCH  15  21
ATOM     21  C   UNL     1      -1.145  -0.041  -8.291  1.00  0.00     0.038 C 
BRANCH  21  22
ATOM     22  C   UNL     1      -0.909   0.240  -9.790  1.00  0.00    -0.015 C 
ATOM     23  C   UNL     1      -1.178  -0.986 -10.663  1.00  0.00     0.007 C 
ATOM     24  C   UNL     1       0.526   0.725 -10.006  1.00  0.00     0.007 C 
ENDBRANCH  21  22
ENDBRANCH  15  21
ENDBRANCH  12  15
ENDBRANCH   6  11
ENDBRANCH   1   5
BRANCH   3  25
ATOM     25  S   UNL     1      -7.700   8.297  -5.095  1.00  0.00     0.264 S 
ATOM     26  O   UNL     1      -8.905   7.767  -5.697  1.00  0.00    -0.201 OA
ATOM     27  O   UNL     1      -7.249   9.637  -5.391  1.00  0.00    -0.201 OA
BRANCH  25  28
ATOM     28  C   UNL     1      -7.879   8.114  -3.340  1.00  0.00     0.094 A 
ATOM     29  C   UNL     1      -8.678   7.098  -2.821  1.00  0.00     0.025 A 
ATOM     30  C   UNL     1      -7.165   8.949  -2.485  1.00  0.00     0.110 A 
ATOM     31  C   UNL     1      -8.781   6.928  -1.434  1.00  0.00     0.034 A 
ATOM     32  C   UNL     1      -7.288   8.772  -1.094  1.00  0.00     0.293 A 
ATOM     33  C   UNL     1      -8.117   7.772  -0.525  1.00  0.00     0.113 A 
BRANCH  32  34
ATOM     34  N   UNL     1      -6.524   9.684  -0.239  1.00  0.00     0.065 N 
ATOM     35  O   UNL     1      -5.632  10.356  -0.776  1.00  0.00    -0.258 OA
ATOM     36  O   UNL     1      -6.839   9.756   0.960  1.00  0.00    -0.258 OA
ENDBRANCH  32  34
BRANCH  33  37
ATOM     37  N   UNL     1      -8.150   7.537   0.854  1.00  0.00    -0.379 N 
ATOM     38  H   UNL     1      -7.526   8.166   1.374  1.00  0.00     0.160 HD
BRANCH  37  39
ATOM     39  C   UNL     1      -9.392   7.263   1.583  1.00  0.00     0.124 C 
BRANCH  39  40
ATOM     40  C   UNL     1      -9.692   8.391   2.575  1.00  0.00     0.096 C 
BRANCH  40  41
ATOM     41  S   UNL     1     -11.081   9.442   2.015  1.00  0.00    -0.124 SA
BRANCH  41  42
ATOM     42  C   UNL     1     -12.455   8.381   2.426  1.00  0.00     0.007 A 
ATOM     43  C   UNL     1     -13.002   8.370   3.712  1.00  0.00     0.015 A 
ATOM     44  C   UNL     1     -13.006   7.559   1.439  1.00  0.00     0.015 A 
ATOM     45  C   UNL     1     -14.070   7.522   4.017  1.00  0.00     0.001 A 
ATOM     46  C   UNL     1     -14.074   6.711   1.743  1.00  0.00     0.001 A 
ATOM     47  C   UNL     1     -14.603   6.691   3.032  1.00  0.00     0.000 A 
ENDBRANCH  41  42
ENDBRANCH  40  41
ENDBRANCH  39  40
ENDBRANCH  37  39
ENDBRANCH  33  37
ENDBRANCH  25  28
ENDBRANCH   3  25
TORSDOF 14
ENDMDL
MODEL 2
REMARK VINA RESULT:      -7.0      1.554      2.143
REMARK SMILES CC(=O)N[C@@H](CC(C)C)C(=O)Nc1ccc(C(=O)NS(=O)(=O)c2ccc(NCCSc3ccccc3)c([N+](=O)[O-])c2)cc1
REMARK SMILES IDX 17 1 18 2 19 3 16 5 13 6 14 7 43 8 15 9 42 10 12 11 10 12
REMARK SMILES IDX 11 13 5 15 4 16 2 17 3 18 1 19 6 21 7 22 8 23 9 24 20 25
REMARK SMILES IDX 21 26 22 27 23 28 24 29 41 30 25 31 37 32 26 33 38 34 39 35
REMARK SMILES IDX 40 36 27 37 28 39 29 40 30 41 31 42 32 43 36 44 33 45 35 46
REMARK SMILES IDX 34 47
REMARK H PARENT 19 4 12 14 4 20 27 38
ROOT
ATOM      1  C   UNL     1      -5.411   7.637  -5.479  1.00  0.00     0.264 C 
ATOM      2  O   UNL     1      -5.018   8.765  -5.230  1.00  0.00    -0.268 OA
ATOM      3  N   UNL     1      -6.740   7.232  -5.318  1.00  0.00    -0.245 N 
ATOM      4  H   UNL     1      -7.009   6.254  -5.314  1.00  0.00     0.183 HD
ENDROOT
BRANCH   1   5
ATOM      5  C   UNL     1      -4.466   6.578  -5.932  1.00  0.00     0.040 A 
ATOM      6  C   UNL     1      -2.640   4.554  -6.666  1.00  0.00     0.041 A 
ATOM      7  C   UNL     1      -2.325   5.466  -5.651  1.00  0.00     0.027 A 
ATOM      8  C   UNL     1      -3.864   4.680  -7.324  1.00  0.00     0.027 A 
ATOM      9  C   UNL     1      -3.229   6.471  -5.286  1.00  0.00     0.016 A 
ATOM     10  C   UNL     1      -4.774   5.684  -6.963  1.00  0.00     0.016 A 
BRANCH   6  11
ATOM     11  N   UNL     1      -1.683   3.562  -6.961  1.00  0.00    -0.324 N 
ATOM     12  C   UNL     1      -1.855   2.187  -6.907  1.00  0.00     0.246 C 
ATOM     13  O   UNL     1      -2.892   1.595  -6.611  1.00  0.00    -0.272 OA
ATOM     14  H   UNL     1      -0.742   3.893  -7.138  1.00  0.00     0.170 HD
BRANCH  12  15
ATOM     15  C   UNL     1      -0.594   1.401  -7.336  1.00  0.00     0.171 C 
BRANCH  15  16
ATOM     16  N   UNL     1      -0.007   0.825  -6.130  1.00  0.00    -0.345 N 
ATOM     17  C   UNL     1       0.698   1.628  -5.262  1.00  0.00     0.217 C 
ATOM     18  O   UNL     1       1.021   2.784  -5.523  1.00  0.00    -0.275 OA
ATOM     19  C   UNL     1       1.050   0.971  -3.956  1.00  0.00     0.114 C 
ATOM     20  H   UNL     1      -0.550   0.082  -5.704  1.00  0.00     0.164 HD
ENDBRANCH  15  16
BRANCH  15  21
ATOM     21  C   UNL     1      -0.999   0.311  -8.339  1.00  0.00     0.038 C 
BRANCH  21  22
ATOM     22  C   UNL     1      -0.840   0.710  -9.821  1.00  0.00    -0.015 C 
ATOM     23  C   UNL     1      -0.377  -0.457 -10.694  1.00  0.00     0.007 C 
ATOM     24  C   UNL     1       0.148   1.872  -9.941  1.00  0.00     0.007 C 
ENDBRANCH  21  22
ENDBRANCH  15  21
ENDBRANCH  12  15
ENDBRANCH   6  11
ENDBRANCH   1   5
BRANCH   3  25
ATOM     25  S   UNL     1      -8.000   8.233  -4.906  1.00  0.00     0.264 S 
ATOM     26  O   UNL     1      -9.189   7.578  -5.409  1.00  0.00    -0.201 OA
ATOM     27  O   UNL     1      -7.675   9.586  -5.295  1.00  0.00    -0.201 OA
BRANCH  25  28
ATOM     28  C   UNL     1      -8.068   8.133  -3.137  1.00  0.00     0.094 A 
ATOM     29  C   UNL     1      -8.869   7.175  -2.521  1.00  0.00     0.025 A 
ATOM     30  C   UNL     1      -7.267   8.975  -2.369  1.00  0.00     0.110 A 
ATOM     31  C   UNL     1      -8.885   7.069  -1.124  1.00  0.00     0.034 A 
ATOM     32  C   UNL     1      -7.304   8.863  -0.966  1.00  0.00     0.293 A 
ATOM     33  C   UNL     1      -8.130   7.923  -0.300  1.00  0.00     0.113 A 
BRANCH  32  34
ATOM     34  N   UNL     1      -6.451   9.779  -0.205  1.00  0.00     0.065 N 
ATOM     35  O   UNL     1      -6.652   9.866   1.015  1.00  0.00    -0.258 OA
ATOM     36  O   UNL     1      -5.558  10.386  -0.819  1.00  0.00    -0.258 OA
ENDBRANCH  32  34
BRANCH  33  37
ATOM     37  N   UNL     1      -8.080   7.750   1.089  1.00  0.00    -0.379 N 
ATOM     38  H   UNL     1      -7.337   8.308   1.527  1.00  0.00     0.160 HD
BRANCH  37  39
ATOM     39  C   UNL     1      -9.283   7.677   1.923  1.00  0.00     0.124 C 
BRANCH  39  40
ATOM     40  C   UNL     1      -9.428   8.948   2.767  1.00  0.00     0.096 C 
BRANCH  40  41
ATOM     41  S   UNL     1     -10.865   9.953   2.247  1.00  0.00    -0.124 SA
BRANCH  41  42
ATOM     42  C   UNL     1     -11.140  10.892   3.739  1.00  0.00     0.007 A 
ATOM     43  C   UNL     1     -11.952  10.400   4.765  1.00  0.00     0.015 A 
ATOM     44  C   UNL     1     -10.519  12.135   3.891  1.00  0.00     0.015 A 
ATOM     45  C   UNL     1     -12.165  11.157   5.920  1.00  0.00     0.001 A 
ATOM     46  C   UNL     1     -10.731  12.892   5.046  1.00  0.00     0.001 A 
ATOM     47  C   UNL     1     -11.557  12.404   6.058  1.00  0.00     0.000 A 
ENDBRANCH  41  42
ENDBRANCH  40  41
ENDBRANCH  39  40
ENDBRANCH  37  39
ENDBRANCH  33  37
ENDBRANCH  25  28
ENDBRANCH   3  25
TORSDOF 14
ENDMDL
MODEL 3
REMARK VINA RESULT:      -6.1     26.660     29.281
REMARK SMILES CC(=O)N[C@@H](CC(C)C)C(=O)Nc1ccc(C(=O)NS(=O)(=O)c2ccc(NCCSc3ccccc3)c([N+](=O)[O-])c2)cc1
REMARK SMILES IDX 17 1 18 2 19 3 16 5 13 6 14 7 43 8 15 9 42 10 12 11 10 12
REMARK SMILES IDX 11 13 5 15 4 16 2 17 3 18 1 19 6 21 7 22 8 23 9 24 20 25
REMARK SMILES IDX 21 26 22 27 23 28 24 29 41 30 25 31 37 32 26 33 38 34 39 35
REMARK SMILES IDX 40 36 27 37 28 39 29 40 30 41 31 42 32 43 36 44 33 45 35 46
REMARK SMILES IDX 34 47
REMARK H PARENT 19 4 12 14 4 20 27 38
ROOT
ATOM      1  C   UNL     1      13.354   5.659  16.861  1.00  0.00     0.264 C 
ATOM      2  O   UNL     1      14.154   6.087  17.677  1.00  0.00    -0.268 OA
ATOM      3  N   UNL     1      13.070   6.300  15.651  1.00  0.00    -0.245 N 
ATOM      4  H   UNL     1      12.258   6.061  15.092  1.00  0.00     0.183 HD
ENDROOT
BRANCH   1   5
ATOM      5  C   UNL     1      12.572   4.420  17.132  1.00  0.00     0.040 A 
ATOM      6  C   UNL     1      11.201   2.014  17.684  1.00  0.00     0.041 A 
ATOM      7  C   UNL     1      12.490   1.992  17.136  1.00  0.00     0.027 A 
ATOM      8  C   UNL     1      10.598   3.248  17.929  1.00  0.00     0.027 A 
ATOM      9  C   UNL     1      13.171   3.183  16.861  1.00  0.00     0.016 A 
ATOM     10  C   UNL     1      11.275   4.445  17.656  1.00  0.00     0.016 A 
BRANCH   6  11
ATOM     11  N   UNL     1      10.591   0.770  17.948  1.00  0.00    -0.324 N 
ATOM     12  C   UNL     1       9.348   0.337  17.512  1.00  0.00     0.246 C 
ATOM     13  O   UNL     1       8.569   0.964  16.796  1.00  0.00    -0.272 OA
ATOM     14  H   UNL     1      11.075   0.169  18.604  1.00  0.00     0.170 HD
BRANCH  12  15
ATOM     15  C   UNL     1       9.016  -1.105  17.965  1.00  0.00     0.171 C 
BRANCH  15  16
ATOM     16  N   UNL     1       7.604  -1.134  18.332  1.00  0.00    -0.345 N 
ATOM     17  C   UNL     1       7.231  -1.573  19.582  1.00  0.00     0.217 C 
ATOM     18  O   UNL     1       8.005  -2.116  20.365  1.00  0.00    -0.275 OA
ATOM     19  C   UNL     1       5.783  -1.338  19.915  1.00  0.00     0.114 C 
ATOM     20  H   UNL     1       7.046  -0.381  17.942  1.00  0.00     0.164 HD
ENDBRANCH  15  16
BRANCH  15  21
ATOM     21  C   UNL     1       9.318  -2.074  16.813  1.00  0.00     0.038 C 
BRANCH  21  22
ATOM     22  C   UNL     1      10.805  -2.461  16.671  1.00  0.00    -0.015 C 
ATOM     23  C   UNL     1      11.017  -3.610  15.684  1.00  0.00     0.007 C 
ATOM     24  C   UNL     1      11.374  -2.842  18.040  1.00  0.00     0.007 C 
ENDBRANCH  21  22
ENDBRANCH  15  21
ENDBRANCH  12  15
ENDBRANCH   6  11
ENDBRANCH   1   5
BRANCH   3  25
ATOM     25  S   UNL     1      13.857   7.644  15.076  1.00  0.00     0.264 S 
ATOM     26  O   UNL     1      13.939   8.551  16.201  1.00  0.00    -0.201 OA
ATOM     27  O   UNL     1      13.244   8.055  13.833  1.00  0.00    -0.201 OA
BRANCH  25  28
ATOM     28  C   UNL     1      15.505   7.073  14.755  1.00  0.00     0.094 A 
ATOM     29  C   UNL     1      16.598   7.860  15.107  1.00  0.00     0.025 A 
ATOM     30  C   UNL     1      15.700   5.807  14.208  1.00  0.00     0.110 A 
ATOM     31  C   UNL     1      17.900   7.386  14.894  1.00  0.00     0.034 A 
ATOM     32  C   UNL     1      17.014   5.351  13.990  1.00  0.00     0.293 A 
ATOM     33  C   UNL     1      18.153   6.135  14.305  1.00  0.00     0.113 A 
BRANCH  32  34
ATOM     34  N   UNL     1      17.164   4.017  13.403  1.00  0.00     0.065 N 
ATOM     35  O   UNL     1      17.917   3.906  12.425  1.00  0.00    -0.258 OA
ATOM     36  O   UNL     1      16.558   3.075  13.939  1.00  0.00    -0.258 OA
ENDBRANCH  32  34
BRANCH  33  37
ATOM     37  N   UNL     1      19.453   5.630  14.181  1.00  0.00    -0.379 N 
ATOM     38  H   UNL     1      19.465   4.624  13.972  1.00  0.00     0.160 HD
BRANCH  37  39
ATOM     39  C   UNL     1      20.522   6.353  13.485  1.00  0.00     0.124 C 
BRANCH  39  40
ATOM     40  C   UNL     1      20.216   6.450  11.987  1.00  0.00     0.096 C 
BRANCH  40  41
ATOM     41  S   UNL     1      20.285   8.177  11.386  1.00  0.00    -0.124 SA
BRANCH  41  42
ATOM     42  C   UNL     1      18.561   8.617  11.519  1.00  0.00     0.007 A 
ATOM     43  C   UNL     1      18.168   9.852  12.044  1.00  0.00     0.015 A 
ATOM     44  C   UNL     1      17.587   7.719  11.073  1.00  0.00     0.015 A 
ATOM     45  C   UNL     1      16.811  10.171  12.152  1.00  0.00     0.001 A 
ATOM     46  C   UNL     1      16.232   8.039  11.179  1.00  0.00     0.001 A 
ATOM     47  C   UNL     1      15.845   9.264  11.722  1.00  0.00     0.000 A 
ENDBRANCH  41  42
ENDBRANCH  40  41
ENDBRANCH  39  40
ENDBRANCH  37  39
ENDBRANCH  33  37
ENDBRANCH  25  28
ENDBRANCH   3  25
TORSDOF 14
ENDMDL
MODEL 4
REMARK VINA RESULT:      -6.1      8.485     13.231
REMARK SMILES CC(=O)N[C@@H](CC(C)C)C(=O)Nc1ccc(C(=O)NS(=O)(=O)c2ccc(NCCSc3ccccc3)c([N+](=O)[O-])c2)cc1
REMARK SMILES IDX 17 1 18 2 19 3 16 5 13 6 14 7 43 8 15 9 42 10 12 11 10 12
REMARK SMILES IDX 11 13 5 15 4 16 2 17 3 18 1 19 6 21 7 22 8 23 9 24 20 25
REMARK SMILES IDX 21 26 22 27 23 28 24 29 41 30 25 31 37 32 26 33 38 34 39 35
REMARK SMILES IDX 40 36 27 37 28 39 29 40 30 41 31 42 32 43 36 44 33 45 35 46
REMARK SMILES IDX 34 47
REMARK H PARENT 19 4 12 14 4 20 27 38
ROOT
ATOM      1  C   UNL     1      -6.506  15.038   6.518  1.00  0.00     0.264 C 
ATOM      2  O   UNL     1      -6.587  15.558   7.619  1.00  0.00    -0.268 OA
ATOM      3  N   UNL     1      -7.460  14.148   6.014  1.00  0.00    -0.245 N 
ATOM      4  H   UNL     1      -7.277  13.561   5.208  1.00  0.00     0.183 HD
ENDROOT
BRANCH   1   5
ATOM      5  C   UNL     1      -5.330  15.285   5.637  1.00  0.00     0.040 A 
ATOM      6  C   UNL     1      -3.046  15.644   4.015  1.00  0.00     0.041 A 
ATOM      7  C   UNL     1      -2.926  15.142   5.317  1.00  0.00     0.027 A 
ATOM      8  C   UNL     1      -4.314  15.987   3.544  1.00  0.00     0.027 A 
ATOM      9  C   UNL     1      -4.056  14.964   6.123  1.00  0.00     0.016 A 
ATOM     10  C   UNL     1      -5.451  15.811   4.346  1.00  0.00     0.016 A 
BRANCH   6  11
ATOM     11  N   UNL     1      -1.861  15.777   3.263  1.00  0.00    -0.324 N 
ATOM     12  C   UNL     1      -1.138  16.938   3.035  1.00  0.00     0.246 C 
ATOM     13  O   UNL     1      -1.400  18.056   3.476  1.00  0.00    -0.272 OA
ATOM     14  H   UNL     1      -1.562  14.952   2.757  1.00  0.00     0.170 HD
BRANCH  12  15
ATOM     15  C   UNL     1       0.136  16.702   2.190  1.00  0.00     0.171 C 
BRANCH  15  16
ATOM     16  N   UNL     1       1.286  16.975   3.046  1.00  0.00    -0.345 N 
ATOM     17  C   UNL     1       2.209  17.924   2.669  1.00  0.00     0.217 C 
ATOM     18  O   UNL     1       2.227  18.445   1.558  1.00  0.00    -0.275 OA
ATOM     19  C   UNL     1       3.210  18.273   3.736  1.00  0.00     0.114 C 
ATOM     20  H   UNL     1       1.102  16.906   4.042  1.00  0.00     0.164 HD
ENDBRANCH  15  16
BRANCH  15  21
ATOM     21  C   UNL     1       0.142  15.252   1.686  1.00  0.00     0.038 C 
BRANCH  21  22
ATOM     22  C   UNL     1       0.518  15.089   0.199  1.00  0.00    -0.015 C 
ATOM     23  C   UNL     1       2.006  15.328  -0.058  1.00  0.00     0.007 C 
ATOM     24  C   UNL     1      -0.316  16.049  -0.654  1.00  0.00     0.007 C 
ENDBRANCH  21  22
ENDBRANCH  15  21
ENDBRANCH  12  15
ENDBRANCH   6  11
ENDBRANCH   1   5
BRANCH   3  25
ATOM     25  S   UNL     1      -8.896  13.769   6.756  1.00  0.00     0.264 S 
ATOM     26  O   UNL     1      -9.740  14.931   6.576  1.00  0.00    -0.201 OA
ATOM     27  O   UNL     1      -8.623  13.246   8.076  1.00  0.00    -0.201 OA
BRANCH  25  28
ATOM     28  C   UNL     1      -9.576  12.479   5.745  1.00  0.00     0.094 A 
ATOM     29  C   UNL     1     -10.136  12.784   4.508  1.00  0.00     0.025 A 
ATOM     30  C   UNL     1      -9.487  11.155   6.167  1.00  0.00     0.110 A 
ATOM     31  C   UNL     1     -10.631  11.757   3.692  1.00  0.00     0.034 A 
ATOM     32  C   UNL     1      -9.998  10.137   5.340  1.00  0.00     0.293 A 
ATOM     33  C   UNL     1     -10.606  10.408   4.089  1.00  0.00     0.113 A 
BRANCH  32  34
ATOM     34  N   UNL     1      -9.889   8.763   5.836  1.00  0.00     0.065 N 
ATOM     35  O   UNL     1      -9.271   7.950   5.134  1.00  0.00    -0.258 OA
ATOM     36  O   UNL     1     -10.389   8.503   6.943  1.00  0.00    -0.258 OA
ENDBRANCH  32  34
BRANCH  33  37
ATOM     37  N   UNL     1     -11.016   9.381   3.229  1.00  0.00    -0.379 N 
ATOM     38  H   UNL     1     -12.029   9.396   3.057  1.00  0.00     0.160 HD
BRANCH  37  39
ATOM     39  C   UNL     1     -10.257   8.994   2.037  1.00  0.00     0.124 C 
BRANCH  39  40
ATOM     40  C   UNL     1     -11.203   8.510   0.933  1.00  0.00     0.096 C 
BRANCH  40  41
ATOM     41  S   UNL     1     -10.658   6.916   0.218  1.00  0.00    -0.124 SA
BRANCH  41  42
ATOM     42  C   UNL     1      -9.451   7.503  -0.957  1.00  0.00     0.007 A 
ATOM     43  C   UNL     1      -9.827   7.906  -2.242  1.00  0.00     0.015 A 
ATOM     44  C   UNL     1      -8.106   7.576  -0.581  1.00  0.00     0.015 A 
ATOM     45  C   UNL     1      -8.863   8.350  -3.151  1.00  0.00     0.001 A 
ATOM     46  C   UNL     1      -7.143   8.020  -1.490  1.00  0.00     0.001 A 
ATOM     47  C   UNL     1      -7.522   8.404  -2.776  1.00  0.00     0.000 A 
ENDBRANCH  41  42
ENDBRANCH  40  41
ENDBRANCH  39  40
ENDBRANCH  37  39
ENDBRANCH  33  37
ENDBRANCH  25  28
ENDBRANCH   3  25
TORSDOF 14
ENDMDL
MODEL 5
REMARK VINA RESULT:      -6.1     10.513     13.292
REMARK SMILES CC(=O)N[C@@H](CC(C)C)C(=O)Nc1ccc(C(=O)NS(=O)(=O)c2ccc(NCCSc3ccccc3)c([N+](=O)[O-])c2)cc1
REMARK SMILES IDX 17 1 18 2 19 3 16 5 13 6 14 7 43 8 15 9 42 10 12 11 10 12
REMARK SMILES IDX 11 13 5 15 4 16 2 17 3 18 1 19 6 21 7 22 8 23 9 24 20 25
REMARK SMILES IDX 21 26 22 27 23 28 24 29 41 30 25 31 37 32 26 33 38 34 39 35
REMARK SMILES IDX 40 36 27 37 28 39 29 40 30 41 31 42 32 43 36 44 33 45 35 46
REMARK SMILES IDX 34 47
REMARK H PARENT 19 4 12 14 4 20 27 38
ROOT
ATOM      1  C   UNL     1      -6.783  15.287   6.376  1.00  0.00     0.264 C 
ATOM      2  O   UNL     1      -7.166  16.200   7.089  1.00  0.00    -0.268 OA
ATOM      3  N   UNL     1      -7.472  14.077   6.238  1.00  0.00    -0.245 N 
ATOM      4  H   UNL     1      -7.041  13.256   5.827  1.00  0.00     0.183 HD
ENDROOT
BRANCH   1   5
ATOM      5  C   UNL     1      -5.498  15.384   5.629  1.00  0.00     0.040 A 
ATOM      6  C   UNL     1      -3.022  15.460   4.273  1.00  0.00     0.041 A 
ATOM      7  C   UNL     1      -3.090  15.063   5.615  1.00  0.00     0.027 A 
ATOM      8  C   UNL     1      -4.198  15.840   3.626  1.00  0.00     0.027 A 
ATOM      9  C   UNL     1      -4.316  15.026   6.289  1.00  0.00     0.016 A 
ATOM     10  C   UNL     1      -5.430  15.804   4.296  1.00  0.00     0.016 A 
BRANCH   6  11
ATOM     11  N   UNL     1      -1.751  15.454   3.663  1.00  0.00    -0.324 N 
ATOM     12  C   UNL     1      -1.160  16.484   2.946  1.00  0.00     0.246 C 
ATOM     13  O   UNL     1      -1.641  17.596   2.741  1.00  0.00    -0.272 OA
ATOM     14  H   UNL     1      -1.261  14.567   3.668  1.00  0.00     0.170 HD
BRANCH  12  15
ATOM     15  C   UNL     1       0.263  16.136   2.449  1.00  0.00     0.171 C 
BRANCH  15  16
ATOM     16  N   UNL     1       0.121  15.392   1.201  1.00  0.00    -0.345 N 
ATOM     17  C   UNL     1       0.030  14.019   1.231  1.00  0.00     0.217 C 
ATOM     18  O   UNL     1       0.238  13.350   2.239  1.00  0.00    -0.275 OA
ATOM     19  C   UNL     1      -0.343  13.394  -0.085  1.00  0.00     0.114 C 
ATOM     20  H   UNL     1      -0.429  15.858   0.487  1.00  0.00     0.164 HD
ENDBRANCH  15  16
BRANCH  15  21
ATOM     21  C   UNL     1       1.053  17.437   2.242  1.00  0.00     0.038 C 
BRANCH  21  22
ATOM     22  C   UNL     1       2.571  17.245   2.048  1.00  0.00    -0.015 C 
ATOM     23  C   UNL     1       3.380  17.730   3.252  1.00  0.00     0.007 C 
ATOM     24  C   UNL     1       3.029  17.979   0.786  1.00  0.00     0.007 C 
ENDBRANCH  21  22
ENDBRANCH  15  21
ENDBRANCH  12  15
ENDBRANCH   6  11
ENDBRANCH   1   5
BRANCH   3  25
ATOM     25  S   UNL     1      -8.960  13.746   6.894  1.00  0.00     0.264 S 
ATOM     26  O   UNL     1      -9.874  14.670   6.257  1.00  0.00    -0.201 OA
ATOM     27  O   UNL     1      -8.841  13.692   8.333  1.00  0.00    -0.201 OA
BRANCH  25  28
ATOM     28  C   UNL     1      -9.353  12.130   6.279  1.00  0.00     0.094 A 
ATOM     29  C   UNL     1      -8.801  11.001   6.879  1.00  0.00     0.025 A 
ATOM     30  C   UNL     1     -10.265  11.993   5.236  1.00  0.00     0.110 A 
ATOM     31  C   UNL     1      -9.148   9.723   6.418  1.00  0.00     0.034 A 
ATOM     32  C   UNL     1     -10.595  10.704   4.779  1.00  0.00     0.293 A 
ATOM     33  C   UNL     1     -10.031   9.530   5.340  1.00  0.00     0.113 A 
BRANCH  32  34
ATOM     34  N   UNL     1     -11.551  10.617   3.672  1.00  0.00     0.065 N 
ATOM     35  O   UNL     1     -12.649  10.090   3.906  1.00  0.00    -0.258 OA
ATOM     36  O   UNL     1     -11.221  11.106   2.580  1.00  0.00    -0.258 OA
ENDBRANCH  32  34
BRANCH  33  37
ATOM     37  N   UNL     1     -10.444   8.251   4.949  1.00  0.00    -0.379 N 
ATOM     38  H   UNL     1      -9.816   7.833   4.252  1.00  0.00     0.160 HD
BRANCH  37  39
ATOM     39  C   UNL     1     -10.960   7.260   5.896  1.00  0.00     0.124 C 
BRANCH  39  40
ATOM     40  C   UNL     1     -12.256   7.760   6.543  1.00  0.00     0.096 C 
BRANCH  40  41
ATOM     41  S   UNL     1     -12.346   7.321   8.317  1.00  0.00    -0.124 SA
BRANCH  41  42
ATOM     42  C   UNL     1     -11.577   8.764   9.031  1.00  0.00     0.007 A 
ATOM     43  C   UNL     1     -12.125  10.039   8.854  1.00  0.00     0.015 A 
ATOM     44  C   UNL     1     -10.416   8.616   9.795  1.00  0.00     0.015 A 
ATOM     45  C   UNL     1     -11.499  11.158   9.410  1.00  0.00     0.001 A 
ATOM     46  C   UNL     1      -9.791   9.735  10.352  1.00  0.00     0.001 A 
ATOM     47  C   UNL     1     -10.331  11.005  10.156  1.00  0.00     0.000 A 
ENDBRANCH  41  42
ENDBRANCH  40  41
ENDBRANCH  39  40
ENDBRANCH  37  39
ENDBRANCH  33  37
ENDBRANCH  25  28
ENDBRANCH   3  25
TORSDOF 14
ENDMDL
MODEL 6
REMARK VINA RESULT:      -6.0     15.318     19.952
REMARK SMILES CC(=O)N[C@@H](CC(C)C)C(=O)Nc1ccc(C(=O)NS(=O)(=O)c2ccc(NCCSc3ccccc3)c([N+](=O)[O-])c2)cc1
REMARK SMILES IDX 17 1 18 2 19 3 16 5 13 6 14 7 43 8 15 9 42 10 12 11 10 12
REMARK SMILES IDX 11 13 5 15 4 16 2 17 3 18 1 19 6 21 7 22 8 23 9 24 20 25
REMARK SMILES IDX 21 26 22 27 23 28 24 29 41 30 25 31 37 32 26 33 38 34 39 35
REMARK SMILES IDX 40 36 27 37 28 39 29 40 30 41 31 42 32 43 36 44 33 45 35 46
REMARK SMILES IDX 34 47
REMARK H PARENT 19 4 12 14 4 20 27 38
ROOT
ATOM      1  C   UNL     1       3.319  16.417  -2.412  1.00  0.00     0.264 C 
ATOM      2  O   UNL     1       2.824  16.156  -3.497  1.00  0.00    -0.268 OA
ATOM      3  N   UNL     1       4.617  16.913  -2.257  1.00  0.00    -0.245 N 
ATOM      4  H   UNL     1       5.089  16.917  -1.359  1.00  0.00     0.183 HD
ENDROOT
BRANCH   1   5
ATOM      5  C   UNL     1       2.569  16.169  -1.148  1.00  0.00     0.040 A 
ATOM      6  C   UNL     1       1.059  15.635   1.177  1.00  0.00     0.041 A 
ATOM      7  C   UNL     1       0.423  15.931  -0.035  1.00  0.00     0.027 A 
ATOM      8  C   UNL     1       2.454  15.632   1.219  1.00  0.00     0.027 A 
ATOM      9  C   UNL     1       1.170  16.198  -1.189  1.00  0.00     0.016 A 
ATOM     10  C   UNL     1       3.208  15.897   0.067  1.00  0.00     0.016 A 
BRANCH   6  11
ATOM     11  N   UNL     1       0.235  15.362   2.288  1.00  0.00    -0.324 N 
ATOM     12  C   UNL     1      -0.370  16.283   3.130  1.00  0.00     0.246 C 
ATOM     13  O   UNL     1      -0.306  17.507   3.035  1.00  0.00    -0.272 OA
ATOM     14  H   UNL     1       0.156  14.387   2.553  1.00  0.00     0.170 HD
BRANCH  12  15
ATOM     15  C   UNL     1      -1.237  15.622   4.228  1.00  0.00     0.171 C 
BRANCH  15  16
ATOM     16  N   UNL     1      -1.087  16.418   5.442  1.00  0.00    -0.345 N 
ATOM     17  C   UNL     1      -0.805  15.795   6.636  1.00  0.00     0.217 C 
ATOM     18  O   UNL     1      -0.841  14.578   6.789  1.00  0.00    -0.275 OA
ATOM     19  C   UNL     1      -0.449  16.735   7.756  1.00  0.00     0.114 C 
ATOM     20  H   UNL     1      -0.662  17.329   5.305  1.00  0.00     0.164 HD
ENDBRANCH  15  16
BRANCH  15  21
ATOM     21  C   UNL     1      -2.698  15.583   3.757  1.00  0.00     0.038 C 
BRANCH  21  22
ATOM     22  C   UNL     1      -3.724  16.076   4.797  1.00  0.00    -0.015 C 
ATOM     23  C   UNL     1      -4.247  14.945   5.683  1.00  0.00     0.007 C 
ATOM     24  C   UNL     1      -4.893  16.761   4.087  1.00  0.00     0.007 C 
ENDBRANCH  21  22
ENDBRANCH  15  21
ENDBRANCH  12  15
ENDBRANCH   6  11
ENDBRANCH   1   5
BRANCH   3  25
ATOM     25  S   UNL     1       5.626  17.351  -3.500  1.00  0.00     0.264 S 
ATOM     26  O   UNL     1       4.976  18.472  -4.145  1.00  0.00    -0.201 OA
ATOM     27  O   UNL     1       5.991  16.171  -4.251  1.00  0.00    -0.201 OA
BRANCH  25  28
ATOM     28  C   UNL     1       7.064  17.992  -2.683  1.00  0.00     0.094 A 
ATOM     29  C   UNL     1       6.991  18.390  -1.350  1.00  0.00     0.025 A 
ATOM     30  C   UNL     1       8.280  18.032  -3.360  1.00  0.00     0.110 A 
ATOM     31  C   UNL     1       8.140  18.853  -0.694  1.00  0.00     0.034 A 
ATOM     32  C   UNL     1       9.422  18.510  -2.690  1.00  0.00     0.293 A 
ATOM     33  C   UNL     1       9.383  18.956  -1.345  1.00  0.00     0.113 A 
BRANCH  32  34
ATOM     34  N   UNL     1      10.673  18.543  -3.452  1.00  0.00     0.065 N 
ATOM     35  O   UNL     1      11.069  17.476  -3.944  1.00  0.00    -0.258 OA
ATOM     36  O   UNL     1      11.241  19.638  -3.588  1.00  0.00    -0.258 OA
ENDBRANCH  32  34
BRANCH  33  37
ATOM     37  N   UNL     1      10.543  19.330  -0.657  1.00  0.00    -0.379 N 
ATOM     38  H   UNL     1      10.767  20.326  -0.778  1.00  0.00     0.160 HD
BRANCH  37  39
ATOM     39  C   UNL     1      10.854  18.853   0.694  1.00  0.00     0.124 C 
BRANCH  39  40
ATOM     40  C   UNL     1      11.379  17.414   0.647  1.00  0.00     0.096 C 
BRANCH  40  41
ATOM     41  S   UNL     1      13.103  17.297   1.248  1.00  0.00    -0.124 SA
BRANCH  41  42
ATOM     42  C   UNL     1      12.918  16.004   2.462  1.00  0.00     0.007 A 
ATOM     43  C   UNL     1      12.032  16.139   3.535  1.00  0.00     0.015 A 
ATOM     44  C   UNL     1      13.661  14.826   2.330  1.00  0.00     0.015 A 
ATOM     45  C   UNL     1      11.913  15.119   4.483  1.00  0.00     0.001 A 
ATOM     46  C   UNL     1      13.541  13.807   3.277  1.00  0.00     0.001 A 
ATOM     47  C   UNL     1      12.669  13.956   4.355  1.00  0.00     0.000 A 
ENDBRANCH  41  42
ENDBRANCH  40  41
ENDBRANCH  39  40
ENDBRANCH  37  39
ENDBRANCH  33  37
ENDBRANCH  25  28
ENDBRANCH   3  25
TORSDOF 14
ENDMDL
MODEL 7
REMARK VINA RESULT:      -5.9     20.167     25.342
REMARK SMILES CC(=O)N[C@@H](CC(C)C)C(=O)Nc1ccc(C(=O)NS(=O)(=O)c2ccc(NCCSc3ccccc3)c([N+](=O)[O-])c2)cc1
REMARK SMILES IDX 17 1 18 2 19 3 16 5 13 6 14 7 43 8 15 9 42 10 12 11 10 12
REMARK SMILES IDX 11 13 5 15 4 16 2 17 3 18 1 19 6 21 7 22 8 23 9 24 20 25
REMARK SMILES IDX 21 26 22 27 23 28 24 29 41 30 25 31 37 32 26 33 38 34 39 35
REMARK SMILES IDX 40 36 27 37 28 39 29 40 30 41 31 42 32 43 36 44 33 45 35 46
REMARK SMILES IDX 34 47
REMARK H PARENT 19 4 12 14 4 20 27 38
ROOT
ATOM      1  C   UNL     1      15.868   7.181   4.769  1.00  0.00     0.264 C 
ATOM      2  O   UNL     1      14.952   6.690   4.131  1.00  0.00    -0.268 OA
ATOM      3  N   UNL     1      17.198   7.177   4.334  1.00  0.00    -0.245 N 
ATOM      4  H   UNL     1      17.970   7.385   4.959  1.00  0.00     0.183 HD
ENDROOT
BRANCH   1   5
ATOM      5  C   UNL     1      15.632   7.787   6.110  1.00  0.00     0.040 A 
ATOM      6  C   UNL     1      15.158   9.051   8.590  1.00  0.00     0.041 A 
ATOM      7  C   UNL     1      15.816   9.729   7.557  1.00  0.00     0.027 A 
ATOM      8  C   UNL     1      14.763   7.729   8.378  1.00  0.00     0.027 A 
ATOM      9  C   UNL     1      16.053   9.105   6.327  1.00  0.00     0.016 A 
ATOM     10  C   UNL     1      14.996   7.098   7.148  1.00  0.00     0.016 A 
BRANCH   6  11
ATOM     11  N   UNL     1      14.944   9.756   9.792  1.00  0.00    -0.324 N 
ATOM     12  C   UNL     1      14.024  10.769  10.017  1.00  0.00     0.246 C 
ATOM     13  O   UNL     1      13.215  11.211   9.203  1.00  0.00    -0.272 OA
ATOM     14  H   UNL     1      15.599   9.566  10.541  1.00  0.00     0.170 HD
BRANCH  12  15
ATOM     15  C   UNL     1      14.042  11.291  11.473  1.00  0.00     0.171 C 
BRANCH  15  16
ATOM     16  N   UNL     1      14.902  10.401  12.247  1.00  0.00    -0.345 N 
ATOM     17  C   UNL     1      14.346   9.550  13.175  1.00  0.00     0.217 C 
ATOM     18  O   UNL     1      13.172   9.610  13.529  1.00  0.00    -0.275 OA
ATOM     19  C   UNL     1      15.303   8.532  13.733  1.00  0.00     0.114 C 
ATOM     20  H   UNL     1      15.708  10.044  11.744  1.00  0.00     0.164 HD
ENDBRANCH  15  16
BRANCH  15  21
ATOM     21  C   UNL     1      14.571  12.732  11.482  1.00  0.00     0.038 C 
BRANCH  21  22
ATOM     22  C   UNL     1      13.593  13.774  12.063  1.00  0.00    -0.015 C 
ATOM     23  C   UNL     1      12.746  13.209  13.203  1.00  0.00     0.007 C 
ATOM     24  C   UNL     1      12.681  14.302  10.953  1.00  0.00     0.007 C 
ENDBRANCH  21  22
ENDBRANCH  15  21
ENDBRANCH  12  15
ENDBRANCH   6  11
ENDBRANCH   1   5
BRANCH   3  25
ATOM     25  S   UNL     1      17.715   6.641   2.851  1.00  0.00     0.264 S 
ATOM     26  O   UNL     1      17.109   5.337   2.682  1.00  0.00    -0.201 OA
ATOM     27  O   UNL     1      19.147   6.812   2.759  1.00  0.00    -0.201 OA
BRANCH  25  28
ATOM     28  C   UNL     1      16.921   7.730   1.698  1.00  0.00     0.094 A 
ATOM     29  C   UNL     1      16.036   7.220   0.751  1.00  0.00     0.025 A 
ATOM     30  C   UNL     1      17.136   9.103   1.788  1.00  0.00     0.110 A 
ATOM     31  C   UNL     1      15.375   8.089  -0.129  1.00  0.00     0.034 A 
ATOM     32  C   UNL     1      16.472   9.960   0.890  1.00  0.00     0.293 A 
ATOM     33  C   UNL     1      15.590   9.478  -0.110  1.00  0.00     0.113 A 
BRANCH  32  34
ATOM     34  N   UNL     1      16.743  11.394   1.020  1.00  0.00     0.065 N 
ATOM     35  O   UNL     1      17.313  11.955   0.074  1.00  0.00    -0.258 OA
ATOM     36  O   UNL     1      16.354  11.967   2.051  1.00  0.00    -0.258 OA
ENDBRANCH  32  34
BRANCH  33  37
ATOM     37  N   UNL     1      14.857  10.346  -0.928  1.00  0.00    -0.379 N 
ATOM     38  H   UNL     1      14.862  11.313  -0.578  1.00  0.00     0.160 HD
BRANCH  37  39
ATOM     39  C   UNL     1      14.904  10.287  -2.391  1.00  0.00     0.124 C 
BRANCH  39  40
ATOM     40  C   UNL     1      13.742   9.447  -2.932  1.00  0.00     0.096 C 
BRANCH  40  41
ATOM     41  S   UNL     1      13.262   9.954  -4.623  1.00  0.00    -0.124 SA
BRANCH  41  42
ATOM     42  C   UNL     1      12.784   8.372  -5.295  1.00  0.00     0.007 A 
ATOM     43  C   UNL     1      12.014   7.472  -4.551  1.00  0.00     0.015 A 
ATOM     44  C   UNL     1      13.170   8.034  -6.595  1.00  0.00     0.015 A 
ATOM     45  C   UNL     1      11.661   6.233  -5.092  1.00  0.00     0.001 A 
ATOM     46  C   UNL     1      12.817   6.795  -7.135  1.00  0.00     0.001 A 
ATOM     47  C   UNL     1      12.066   5.894  -6.382  1.00  0.00     0.000 A 
ENDBRANCH  41  42
ENDBRANCH  40  41
ENDBRANCH  39  40
ENDBRANCH  37  39
ENDBRANCH  33  37
ENDBRANCH  25  28
ENDBRANCH   3  25
TORSDOF 14
ENDMDL
MODEL 8
REMARK VINA RESULT:      -5.7     17.182     20.730
REMARK SMILES CC(=O)N[C@@H](CC(C)C)C(=O)Nc1ccc(C(=O)NS(=O)(=O)c2ccc(NCCSc3ccccc3)c([N+](=O)[O-])c2)cc1
REMARK SMILES IDX 17 1 18 2 19 3 16 5 13 6 14 7 43 8 15 9 42 10 12 11 10 12
REMARK SMILES IDX 11 13 5 15 4 16 2 17 3 18 1 19 6 21 7 22 8 23 9 24 20 25
REMARK SMILES IDX 21 26 22 27 23 28 24 29 41 30 25 31 37 32 26 33 38 34 39 35
REMARK SMILES IDX 40 36 27 37 28 39 29 40 30 41 31 42 32 43 36 44 33 45 35 46
REMARK SMILES IDX 34 47
REMARK H PARENT 19 4 12 14 4 20 27 38
ROOT
ATOM      1  C   UNL     1       9.127  16.514  -1.435  1.00  0.00     0.264 C 
ATOM      2  O   UNL     1       9.806  15.704  -2.045  1.00  0.00    -0.268 OA
ATOM      3  N   UNL     1       9.661  17.637  -0.794  1.00  0.00    -0.245 N 
ATOM      4  H   UNL     1       9.130  18.173  -0.116  1.00  0.00     0.183 HD
ENDROOT
BRANCH   1   5
ATOM      5  C   UNL     1       7.657  16.326  -1.286  1.00  0.00     0.040 A 
ATOM      6  C   UNL     1       4.892  15.843  -0.980  1.00  0.00     0.041 A 
ATOM      7  C   UNL     1       5.717  14.899  -1.602  1.00  0.00     0.027 A 
ATOM      8  C   UNL     1       5.458  17.039  -0.536  1.00  0.00     0.027 A 
ATOM      9  C   UNL     1       7.088  15.136  -1.756  1.00  0.00     0.016 A 
ATOM     10  C   UNL     1       6.831  17.283  -0.686  1.00  0.00     0.016 A 
BRANCH   6  11
ATOM     11  N   UNL     1       3.526  15.520  -0.849  1.00  0.00    -0.324 N 
ATOM     12  C   UNL     1       2.775  15.506   0.317  1.00  0.00     0.246 C 
ATOM     13  O   UNL     1       3.174  15.798   1.442  1.00  0.00    -0.272 OA
ATOM     14  H   UNL     1       3.071  15.169  -1.684  1.00  0.00     0.170 HD
BRANCH  12  15
ATOM     15  C   UNL     1       1.292  15.137   0.077  1.00  0.00     0.171 C 
BRANCH  15  16
ATOM     16  N   UNL     1       0.724  14.751   1.365  1.00  0.00    -0.345 N 
ATOM     17  C   UNL     1       0.422  13.431   1.611  1.00  0.00     0.217 C 
ATOM     18  O   UNL     1       0.437  12.562   0.744  1.00  0.00    -0.275 OA
ATOM     19  C   UNL     1       0.065  13.132   3.041  1.00  0.00     0.114 C 
ATOM     20  H   UNL     1       1.065  15.283   2.159  1.00  0.00     0.164 HD
ENDBRANCH  15  16
BRANCH  15  21
ATOM     21  C   UNL     1       0.563  16.350  -0.518  1.00  0.00     0.038 C 
BRANCH  21  22
ATOM     22  C   UNL     1       0.206  16.218  -2.013  1.00  0.00    -0.015 C 
ATOM     23  C   UNL     1      -0.034  17.573  -2.679  1.00  0.00     0.007 C 
ATOM     24  C   UNL     1      -1.034  15.335  -2.173  1.00  0.00     0.007 C 
ENDBRANCH  21  22
ENDBRANCH  15  21
ENDBRANCH  12  15
ENDBRANCH   6  11
ENDBRANCH   1   5
BRANCH   3  25
ATOM     25  S   UNL     1      11.248  18.118  -0.874  1.00  0.00     0.264 S 
ATOM     26  O   UNL     1      11.610  18.012  -2.272  1.00  0.00    -0.201 OA
ATOM     27  O   UNL     1      12.003  17.426   0.144  1.00  0.00    -0.201 OA
BRANCH  25  28
ATOM     28  C   UNL     1      11.194  19.848  -0.488  1.00  0.00     0.094 A 
ATOM     29  C   UNL     1      12.144  20.714  -1.023  1.00  0.00     0.025 A 
ATOM     30  C   UNL     1      10.159  20.345   0.301  1.00  0.00     0.110 A 
ATOM     31  C   UNL     1      12.071  22.087  -0.752  1.00  0.00     0.034 A 
ATOM     32  C   UNL     1      10.107  21.725   0.571  1.00  0.00     0.293 A 
ATOM     33  C   UNL     1      11.073  22.635   0.073  1.00  0.00     0.113 A 
BRANCH  32  34
ATOM     34  N   UNL     1       9.004  22.194   1.415  1.00  0.00     0.065 N 
ATOM     35  O   UNL     1       7.852  21.906   1.060  1.00  0.00    -0.258 OA
ATOM     36  O   UNL     1       9.289  22.819   2.449  1.00  0.00    -0.258 OA
ENDBRANCH  32  34
BRANCH  33  37
ATOM     37  N   UNL     1      10.952  24.017   0.262  1.00  0.00    -0.379 N 
ATOM     38  H   UNL     1      11.620  24.378   0.955  1.00  0.00     0.160 HD
BRANCH  37  39
ATOM     39  C   UNL     1      10.744  24.954  -0.845  1.00  0.00     0.124 C 
BRANCH  39  40
ATOM     40  C   UNL     1       9.320  24.824  -1.398  1.00  0.00     0.096 C 
BRANCH  40  41
ATOM     41  S   UNL     1       9.315  24.403  -3.178  1.00  0.00    -0.124 SA
BRANCH  41  42
ATOM     42  C   UNL     1       8.928  22.665  -3.083  1.00  0.00     0.007 A 
ATOM     43  C   UNL     1       9.743  21.707  -3.694  1.00  0.00     0.015 A 
ATOM     44  C   UNL     1       7.799  22.251  -2.370  1.00  0.00     0.015 A 
ATOM     45  C   UNL     1       9.415  20.351  -3.619  1.00  0.00     0.001 A 
ATOM     46  C   UNL     1       7.472  20.895  -2.294  1.00  0.00     0.001 A 
ATOM     47  C   UNL     1       8.278  19.946  -2.921  1.00  0.00     0.000 A 
ENDBRANCH  41  42
ENDBRANCH  40  41
ENDBRANCH  39  40
ENDBRANCH  37  39
ENDBRANCH  33  37
ENDBRANCH  25  28
ENDBRANCH   3  25
TORSDOF 14
ENDMDL
MODEL 9
REMARK VINA RESULT:      -5.6     19.828     24.195
REMARK SMILES CC(=O)N[C@@H](CC(C)C)C(=O)Nc1ccc(C(=O)NS(=O)(=O)c2ccc(NCCSc3ccccc3)c([N+](=O)[O-])c2)cc1
REMARK SMILES IDX 17 1 18 2 19 3 16 5 13 6 14 7 43 8 15 9 42 10 12 11 10 12
REMARK SMILES IDX 11 13 5 15 4 16 2 17 3 18 1 19 6 21 7 22 8 23 9 24 20 25
REMARK SMILES IDX 21 26 22 27 23 28 24 29 41 30 25 31 37 32 26 33 38 34 39 35
REMARK SMILES IDX 40 36 27 37 28 39 29 40 30 41 31 42 32 43 36 44 33 45 35 46
REMARK SMILES IDX 34 47
REMARK H PARENT 19 4 12 14 4 20 27 38
ROOT
ATOM      1  C   UNL     1      13.988  15.606   1.108  1.00  0.00     0.264 C 
ATOM      2  O   UNL     1      14.326  16.769   0.954  1.00  0.00    -0.268 OA
ATOM      3  N   UNL     1      13.862  14.696   0.054  1.00  0.00    -0.245 N 
ATOM      4  H   UNL     1      13.377  13.811   0.162  1.00  0.00     0.183 HD
ENDROOT
BRANCH   1   5
ATOM      5  C   UNL     1      13.632  15.083   2.457  1.00  0.00     0.040 A 
ATOM      6  C   UNL     1      12.829  14.102   4.980  1.00  0.00     0.041 A 
ATOM      7  C   UNL     1      12.110  15.125   4.350  1.00  0.00     0.027 A 
ATOM      8  C   UNL     1      13.965  13.593   4.348  1.00  0.00     0.027 A 
ATOM      9  C   UNL     1      12.507  15.614   3.100  1.00  0.00     0.016 A 
ATOM     10  C   UNL     1      14.367  14.078   3.095  1.00  0.00     0.016 A 
BRANCH   6  11
ATOM     11  N   UNL     1      12.354  13.655   6.230  1.00  0.00    -0.324 N 
ATOM     12  C   UNL     1      12.773  14.072   7.485  1.00  0.00     0.246 C 
ATOM     13  O   UNL     1      13.623  14.928   7.720  1.00  0.00    -0.272 OA
ATOM     14  H   UNL     1      11.706  12.877   6.205  1.00  0.00     0.170 HD
BRANCH  12  15
ATOM     15  C   UNL     1      12.002  13.389   8.639  1.00  0.00     0.171 C 
BRANCH  15  16
ATOM     16  N   UNL     1      10.579  13.618   8.410  1.00  0.00    -0.345 N 
ATOM     17  C   UNL     1       9.828  14.261   9.367  1.00  0.00     0.217 C 
ATOM     18  O   UNL     1      10.240  14.507  10.497  1.00  0.00    -0.275 OA
ATOM     19  C   UNL     1       8.443  14.639   8.918  1.00  0.00     0.114 C 
ATOM     20  H   UNL     1      10.327  13.810   7.446  1.00  0.00     0.164 HD
ENDBRANCH  15  16
BRANCH  15  21
ATOM     21  C   UNL     1      12.336  11.890   8.647  1.00  0.00     0.038 C 
BRANCH  21  22
ATOM     22  C   UNL     1      13.229  11.436   9.820  1.00  0.00    -0.015 C 
ATOM     23  C   UNL     1      13.497  12.561  10.821  1.00  0.00     0.007 C 
ATOM     24  C   UNL     1      14.556  10.896   9.281  1.00  0.00     0.007 C 
ENDBRANCH  21  22
ENDBRANCH  15  21
ENDBRANCH  12  15
ENDBRANCH   6  11
ENDBRANCH   1   5
BRANCH   3  25
ATOM     25  S   UNL     1      14.275  15.000  -1.525  1.00  0.00     0.264 S 
ATOM     26  O   UNL     1      15.675  15.364  -1.491  1.00  0.00    -0.201 OA
ATOM     27  O   UNL     1      13.291  15.882  -2.109  1.00  0.00    -0.201 OA
BRANCH  25  28
ATOM     28  C   UNL     1      14.176  13.412  -2.309  1.00  0.00     0.094 A 
ATOM     29  C   UNL     1      13.196  13.167  -3.268  1.00  0.00     0.025 A 
ATOM     30  C   UNL     1      15.122  12.436  -2.009  1.00  0.00     0.110 A 
ATOM     31  C   UNL     1      13.149  11.926  -3.919  1.00  0.00     0.034 A 
ATOM     32  C   UNL     1      15.054  11.192  -2.664  1.00  0.00     0.293 A 
ATOM     33  C   UNL     1      14.053  10.890  -3.621  1.00  0.00     0.113 A 
BRANCH  32  34
ATOM     34  N   UNL     1      16.067  10.197  -2.303  1.00  0.00     0.065 N 
ATOM     35  O   UNL     1      16.976   9.985  -3.119  1.00  0.00    -0.258 OA
ATOM     36  O   UNL     1      15.977   9.653  -1.191  1.00  0.00    -0.258 OA
ENDBRANCH  32  34
BRANCH  33  37
ATOM     37  N   UNL     1      14.058   9.690  -4.341  1.00  0.00    -0.379 N 
ATOM     38  H   UNL     1      14.928   9.158  -4.212  1.00  0.00     0.160 HD
BRANCH  37  39
ATOM     39  C   UNL     1      12.885   8.817  -4.436  1.00  0.00     0.124 C 
BRANCH  39  40
ATOM     40  C   UNL     1      13.266   7.368  -4.113  1.00  0.00     0.096 C 
BRANCH  40  41
ATOM     41  S   UNL     1      15.069   7.090  -4.252  1.00  0.00    -0.124 SA
BRANCH  41  42
ATOM     42  C   UNL     1      15.252   5.700  -3.150  1.00  0.00     0.007 A 
ATOM     43  C   UNL     1      14.537   4.516  -3.352  1.00  0.00     0.015 A 
ATOM     44  C   UNL     1      16.140   5.790  -2.073  1.00  0.00     0.015 A 
ATOM     45  C   UNL     1      14.686   3.443  -2.469  1.00  0.00     0.001 A 
ATOM     46  C   UNL     1      16.289   4.717  -1.191  1.00  0.00     0.001 A 
ATOM     47  C   UNL     1      15.559   3.546  -1.387  1.00  0.00     0.000 A 
ENDBRANCH  41  42
ENDBRANCH  40  41
ENDBRANCH  39  40
ENDBRANCH  37  39
ENDBRANCH  33  37
ENDBRANCH  25  28
ENDBRANCH   3  25
TORSDOF 14
ENDMDL
