MODEL 1
REMARK VINA RESULT:      -7.5      0.000      0.000
REMARK SMILES C=C(c1ccc(C(=O)NS(=O)(=O)c2ccc(NCCSc3ccccc3)c([N+](=O)[O-])c2)cc1)c1cc2c(cc1C)C(C)(C)CCC2(C)C
REMARK SMILES IDX 13 1 14 2 15 3 16 4 27 5 31 6 10 7 11 8 12 9 9 10 7 11 8 12
REMARK SMILES IDX 6 14 3 15 4 16 33 17 5 18 32 19 2 20 1 21 34 22 35 23 39 24
REMARK SMILES IDX 36 25 38 26 37 27 46 28 41 29 45 30 44 31 40 32 47 33 48 34
REMARK SMILES IDX 42 35 43 36 28 37 29 38 30 39 17 40 18 42 19 43 20 44 21 45
REMARK SMILES IDX 22 46 26 47 23 48 25 49 24 50
REMARK H PARENT 9 13 17 41
ROOT
ATOM      1  C   UNL     1     -11.146 -15.218  -5.418  1.00  0.00     0.094 A 
ATOM      2  C   UNL     1     -12.134 -15.167  -4.438  1.00  0.00     0.025 A 
ATOM      3  C   UNL     1     -11.859 -15.629  -3.144  1.00  0.00     0.034 A 
ATOM      4  C   UNL     1     -10.595 -16.129  -2.781  1.00  0.00     0.113 A 
ATOM      5  C   UNL     1      -9.624 -16.186  -3.814  1.00  0.00     0.293 A 
ATOM      6  C   UNL     1      -9.888 -15.737  -5.121  1.00  0.00     0.110 A 
ENDROOT
BRANCH   1   7
ATOM      7  S   UNL     1     -11.507 -14.693  -7.072  1.00  0.00     0.264 S 
ATOM      8  O   UNL     1     -12.727 -15.366  -7.467  1.00  0.00    -0.201 OA
ATOM      9  O   UNL     1     -11.390 -13.256  -7.159  1.00  0.00    -0.201 OA
BRANCH   7  10
ATOM     10  N   UNL     1     -10.303 -15.396  -7.978  1.00  0.00    -0.245 N 
ATOM     11  C   UNL     1     -10.110 -15.178  -9.345  1.00  0.00     0.264 C 
ATOM     12  O   UNL     1     -10.755 -14.365  -9.986  1.00  0.00    -0.268 OA
ATOM     13  H   UNL     1      -9.782 -16.079  -7.444  1.00  0.00     0.183 HD
BRANCH  11  14
ATOM     14  C   UNL     1      -9.043 -15.992  -9.995  1.00  0.00     0.040 A 
ATOM     15  C   UNL     1      -7.096 -17.512 -11.370  1.00  0.00    -0.018 A 
ATOM     16  C   UNL     1      -7.831 -16.522 -12.036  1.00  0.00     0.009 A 
ATOM     17  C   UNL     1      -7.346 -17.729 -10.008  1.00  0.00     0.009 A 
ATOM     18  C   UNL     1      -8.792 -15.766 -11.356  1.00  0.00     0.014 A 
ATOM     19  C   UNL     1      -8.306 -16.974  -9.321  1.00  0.00     0.014 A 
BRANCH  15  20
ATOM     20  C   UNL     1      -6.113 -18.365 -12.083  1.00  0.00    -0.018 C 
ATOM     21  C   UNL     1      -6.522 -19.522 -12.634  1.00  0.00     0.018 C 
BRANCH  20  22
ATOM     22  C   UNL     1      -4.681 -18.005 -12.252  1.00  0.00    -0.015 A 
ATOM     23  C   UNL     1      -4.281 -17.345 -13.426  1.00  0.00     0.013 A 
ATOM     24  C   UNL     1      -3.722 -18.281 -11.269  1.00  0.00    -0.043 A 
ATOM     25  C   UNL     1      -2.946 -16.939 -13.656  1.00  0.00    -0.038 A 
ATOM     26  C   UNL     1      -2.403 -17.848 -11.472  1.00  0.00     0.008 A 
ATOM     27  C   UNL     1      -1.994 -17.162 -12.638  1.00  0.00    -0.038 A 
ATOM     28  C   UNL     1      -2.592 -16.244 -14.977  1.00  0.00    -0.010 C 
ATOM     29  C   UNL     1      -0.529 -16.723 -12.771  1.00  0.00    -0.010 C 
ATOM     30  C   UNL     1      -1.064 -16.161 -15.188  1.00  0.00     0.012 C 
ATOM     31  C   UNL     1      -0.339 -15.718 -13.928  1.00  0.00     0.012 C 
ATOM     32  C   UNL     1      -4.067 -18.997  -9.991  1.00  0.00     0.045 C 
ATOM     33  C   UNL     1      -3.197 -14.823 -14.971  1.00  0.00     0.016 C 
ATOM     34  C   UNL     1      -3.161 -17.011 -16.195  1.00  0.00     0.016 C 
ATOM     35  C   UNL     1      -0.020 -16.016 -11.492  1.00  0.00     0.016 C 
ATOM     36  C   UNL     1       0.345 -17.975 -13.011  1.00  0.00     0.016 C 
ENDBRANCH  20  22
ENDBRANCH  15  20
ENDBRANCH  11  14
ENDBRANCH   7  10
ENDBRANCH   1   7
BRANCH   5  37
ATOM     37  N   UNL     1      -8.276 -16.704  -3.550  1.00  0.00     0.065 N 
ATOM     38  O   UNL     1      -7.306 -15.991  -3.855  1.00  0.00    -0.258 OA
ATOM     39  O   UNL     1      -8.185 -17.843  -3.070  1.00  0.00    -0.258 OA
ENDBRANCH   5  37
BRANCH   4  40
ATOM     40  N   UNL     1     -10.367 -16.681  -1.518  1.00  0.00    -0.379 N 
ATOM     41  H   UNL     1     -10.017 -17.646  -1.557  1.00  0.00     0.160 HD
BRANCH  40  42
ATOM     42  C   UNL     1      -9.803 -15.935  -0.390  1.00  0.00     0.124 C 
BRANCH  42  43
ATOM     43  C   UNL     1     -10.001 -16.676   0.938  1.00  0.00     0.096 C 
BRANCH  43  44
ATOM     44  S   UNL     1      -8.948 -18.167   1.058  1.00  0.00    -0.124 SA
BRANCH  44  45
ATOM     45  C   UNL     1      -8.184 -17.888   2.645  1.00  0.00     0.007 A 
ATOM     46  C   UNL     1      -8.650 -16.849   3.457  1.00  0.00     0.015 A 
ATOM     47  C   UNL     1      -7.119 -18.679   3.087  1.00  0.00     0.015 A 
ATOM     48  C   UNL     1      -8.075 -16.622   4.709  1.00  0.00     0.001 A 
ATOM     49  C   UNL     1      -6.543 -18.449   4.338  1.00  0.00     0.001 A 
ATOM     50  C   UNL     1      -7.025 -17.424   5.150  1.00  0.00     0.000 A 
ENDBRANCH  44  45
ENDBRANCH  43  44
ENDBRANCH  42  43
ENDBRANCH  40  42
ENDBRANCH   4  40
TORSDOF 11
ENDMDL
MODEL 2
REMARK VINA RESULT:      -7.2      6.952     12.480
REMARK SMILES C=C(c1ccc(C(=O)NS(=O)(=O)c2ccc(NCCSc3ccccc3)c([N+](=O)[O-])c2)cc1)c1cc2c(cc1C)C(C)(C)CCC2(C)C
REMARK SMILES IDX 13 1 14 2 15 3 16 4 27 5 31 6 10 7 11 8 12 9 9 10 7 11 8 12
REMARK SMILES IDX 6 14 3 15 4 16 33 17 5 18 32 19 2 20 1 21 34 22 35 23 39 24
REMARK SMILES IDX 36 25 38 26 37 27 46 28 41 29 45 30 44 31 40 32 47 33 48 34
REMARK SMILES IDX 42 35 43 36 28 37 29 38 30 39 17 40 18 42 19 43 20 44 21 45
REMARK SMILES IDX 22 46 26 47 23 48 25 49 24 50
REMARK H PARENT 9 13 17 41
ROOT
ATOM      1  C   UNL     1     -10.729 -14.536  -6.186  1.00  0.00     0.094 A 
ATOM      2  C   UNL     1     -11.187 -13.940  -5.014  1.00  0.00     0.025 A 
ATOM      3  C   UNL     1     -12.135 -12.910  -5.078  1.00  0.00     0.034 A 
ATOM      4  C   UNL     1     -12.672 -12.462  -6.299  1.00  0.00     0.113 A 
ATOM      5  C   UNL     1     -12.161 -13.078  -7.471  1.00  0.00     0.293 A 
ATOM      6  C   UNL     1     -11.200 -14.105  -7.424  1.00  0.00     0.110 A 
ENDROOT
BRANCH   1   7
ATOM      7  S   UNL     1      -9.483 -15.795  -6.115  1.00  0.00     0.264 S 
ATOM      8  O   UNL     1      -9.987 -16.923  -6.871  1.00  0.00    -0.201 OA
ATOM      9  O   UNL     1      -8.194 -15.216  -6.414  1.00  0.00    -0.201 OA
BRANCH   7  10
ATOM     10  N   UNL     1      -9.509 -16.283  -4.526  1.00  0.00    -0.245 N 
ATOM     11  C   UNL     1      -8.402 -16.264  -3.673  1.00  0.00     0.264 C 
ATOM     12  O   UNL     1      -7.325 -15.789  -3.993  1.00  0.00    -0.268 OA
ATOM     13  H   UNL     1     -10.400 -16.689  -4.272  1.00  0.00     0.183 HD
BRANCH  11  14
ATOM     14  C   UNL     1      -8.608 -16.851  -2.317  1.00  0.00     0.040 A 
ATOM     15  C   UNL     1      -9.110 -18.060   0.188  1.00  0.00    -0.018 A 
ATOM     16  C   UNL     1      -9.360 -18.754  -1.004  1.00  0.00     0.009 A 
ATOM     17  C   UNL     1      -8.603 -16.756   0.109  1.00  0.00     0.009 A 
ATOM     18  C   UNL     1      -9.109 -18.157  -2.244  1.00  0.00     0.014 A 
ATOM     19  C   UNL     1      -8.347 -16.155  -1.130  1.00  0.00     0.014 A 
BRANCH  15  20
ATOM     20  C   UNL     1      -9.423 -18.650   1.513  1.00  0.00    -0.018 C 
ATOM     21  C   UNL     1     -10.660 -18.505   2.023  1.00  0.00     0.018 C 
BRANCH  20  22
ATOM     22  C   UNL     1      -8.446 -19.426   2.320  1.00  0.00    -0.015 A 
ATOM     23  C   UNL     1      -8.362 -20.816   2.132  1.00  0.00     0.013 A 
ATOM     24  C   UNL     1      -7.590 -18.814   3.244  1.00  0.00    -0.043 A 
ATOM     25  C   UNL     1      -7.441 -21.627   2.834  1.00  0.00    -0.038 A 
ATOM     26  C   UNL     1      -6.647 -19.606   3.918  1.00  0.00     0.008 A 
ATOM     27  C   UNL     1      -6.537 -21.001   3.719  1.00  0.00    -0.038 A 
ATOM     28  C   UNL     1      -7.433 -23.140   2.583  1.00  0.00    -0.010 C 
ATOM     29  C   UNL     1      -5.472 -21.785   4.498  1.00  0.00    -0.010 C 
ATOM     30  C   UNL     1      -6.602 -23.892   3.647  1.00  0.00     0.012 C 
ATOM     31  C   UNL     1      -5.275 -23.204   3.922  1.00  0.00     0.012 C 
ATOM     32  C   UNL     1      -7.628 -17.335   3.515  1.00  0.00     0.045 C 
ATOM     33  C   UNL     1      -6.851 -23.410   1.178  1.00  0.00     0.016 C 
ATOM     34  C   UNL     1      -8.860 -23.736   2.642  1.00  0.00     0.016 C 
ATOM     35  C   UNL     1      -4.088 -21.095   4.436  1.00  0.00     0.016 C 
ATOM     36  C   UNL     1      -5.903 -21.872   5.979  1.00  0.00     0.016 C 
ENDBRANCH  20  22
ENDBRANCH  15  20
ENDBRANCH  11  14
ENDBRANCH   7  10
ENDBRANCH   1   7
BRANCH   5  37
ATOM     37  N   UNL     1     -12.640 -12.678  -8.800  1.00  0.00     0.065 N 
ATOM     38  O   UNL     1     -12.358 -11.537  -9.202  1.00  0.00    -0.258 OA
ATOM     39  O   UNL     1     -13.330 -13.493  -9.428  1.00  0.00    -0.258 OA
ENDBRANCH   5  37
BRANCH   4  40
ATOM     40  N   UNL     1     -13.537 -11.367  -6.355  1.00  0.00    -0.379 N 
ATOM     41  H   UNL     1     -13.152 -10.575  -6.882  1.00  0.00     0.160 HD
BRANCH  40  42
ATOM     42  C   UNL     1     -14.990 -11.481  -6.512  1.00  0.00     0.124 C 
BRANCH  42  43
ATOM     43  C   UNL     1     -15.569 -12.601  -5.641  1.00  0.00     0.096 C 
BRANCH  43  44
ATOM     44  S   UNL     1     -16.014 -14.079  -6.625  1.00  0.00    -0.124 SA
BRANCH  44  45
ATOM     45  C   UNL     1     -14.922 -15.285  -5.895  1.00  0.00     0.007 A 
ATOM     46  C   UNL     1     -14.230 -16.174  -6.724  1.00  0.00     0.015 A 
ATOM     47  C   UNL     1     -14.755 -15.368  -4.509  1.00  0.00     0.015 A 
ATOM     48  C   UNL     1     -13.360 -17.117  -6.175  1.00  0.00     0.001 A 
ATOM     49  C   UNL     1     -13.886 -16.313  -3.961  1.00  0.00     0.001 A 
ATOM     50  C   UNL     1     -13.185 -17.184  -4.794  1.00  0.00     0.000 A 
ENDBRANCH  44  45
ENDBRANCH  43  44
ENDBRANCH  42  43
ENDBRANCH  40  42
ENDBRANCH   4  40
TORSDOF 11
ENDMDL
MODEL 3
REMARK VINA RESULT:      -7.1      1.275      2.638
REMARK SMILES C=C(c1ccc(C(=O)NS(=O)(=O)c2ccc(NCCSc3ccccc3)c([N+](=O)[O-])c2)cc1)c1cc2c(cc1C)C(C)(C)CCC2(C)C
REMARK SMILES IDX 13 1 14 2 15 3 16 4 27 5 31 6 10 7 11 8 12 9 9 10 7 11 8 12
REMARK SMILES IDX 6 14 3 15 4 16 33 17 5 18 32 19 2 20 1 21 34 22 35 23 39 24
REMARK SMILES IDX 36 25 38 26 37 27 46 28 41 29 45 30 44 31 40 32 47 33 48 34
REMARK SMILES IDX 42 35 43 36 28 37 29 38 30 39 17 40 18 42 19 43 20 44 21 45
REMARK SMILES IDX 22 46 26 47 23 48 25 49 24 50
REMARK H PARENT 9 13 17 41
ROOT
ATOM      1  C   UNL     1     -11.490 -14.732  -5.580  1.00  0.00     0.094 A 
ATOM      2  C   UNL     1     -12.344 -14.749  -4.481  1.00  0.00     0.025 A 
ATOM      3  C   UNL     1     -11.954 -15.398  -3.302  1.00  0.00     0.034 A 
ATOM      4  C   UNL     1     -10.701 -16.024  -3.173  1.00  0.00     0.113 A 
ATOM      5  C   UNL     1      -9.870 -16.005  -4.323  1.00  0.00     0.293 A 
ATOM      6  C   UNL     1     -10.252 -15.368  -5.518  1.00  0.00     0.110 A 
ENDROOT
BRANCH   1   7
ATOM      7  S   UNL     1     -12.004 -13.967  -7.095  1.00  0.00     0.264 S 
ATOM      8  O   UNL     1     -13.283 -14.549  -7.443  1.00  0.00    -0.201 OA
ATOM      9  O   UNL     1     -11.842 -12.535  -6.991  1.00  0.00    -0.201 OA
BRANCH   7  10
ATOM     10  N   UNL     1     -10.930 -14.559  -8.217  1.00  0.00    -0.245 N 
ATOM     11  C   UNL     1     -10.928 -14.213  -9.572  1.00  0.00     0.264 C 
ATOM     12  O   UNL     1     -11.662 -13.359 -10.040  1.00  0.00    -0.268 OA
ATOM     13  H   UNL     1     -10.335 -15.277  -7.826  1.00  0.00     0.183 HD
BRANCH  11  14
ATOM     14  C   UNL     1      -9.954 -14.943 -10.434  1.00  0.00     0.040 A 
ATOM     15  C   UNL     1      -8.202 -16.289 -12.197  1.00  0.00    -0.018 A 
ATOM     16  C   UNL     1      -9.020 -15.249 -12.658  1.00  0.00     0.009 A 
ATOM     17  C   UNL     1      -8.270 -16.643 -10.842  1.00  0.00     0.009 A 
ATOM     18  C   UNL     1      -9.885 -14.579 -11.786  1.00  0.00     0.014 A 
ATOM     19  C   UNL     1      -9.133 -15.975  -9.964  1.00  0.00     0.014 A 
BRANCH  15  20
ATOM     20  C   UNL     1      -7.319 -17.051 -13.114  1.00  0.00    -0.018 C 
ATOM     21  C   UNL     1      -7.832 -17.564 -14.247  1.00  0.00     0.018 C 
BRANCH  20  22
ATOM     22  C   UNL     1      -5.870 -17.271 -12.869  1.00  0.00    -0.015 A 
ATOM     23  C   UNL     1      -5.469 -18.396 -12.128  1.00  0.00     0.013 A 
ATOM     24  C   UNL     1      -4.890 -16.407 -13.372  1.00  0.00    -0.043 A 
ATOM     25  C   UNL     1      -4.112 -18.699 -11.874  1.00  0.00    -0.038 A 
ATOM     26  C   UNL     1      -3.538 -16.720 -13.157  1.00  0.00     0.008 A 
ATOM     27  C   UNL     1      -3.124 -17.861 -12.434  1.00  0.00    -0.038 A 
ATOM     28  C   UNL     1      -3.765 -19.936 -11.036  1.00  0.00    -0.010 C 
ATOM     29  C   UNL     1      -1.622 -18.125 -12.253  1.00  0.00    -0.010 C 
ATOM     30  C   UNL     1      -2.283 -19.933 -10.599  1.00  0.00     0.012 C 
ATOM     31  C   UNL     1      -1.354 -19.557 -11.741  1.00  0.00     0.012 C 
ATOM     32  C   UNL     1      -5.237 -15.173 -14.161  1.00  0.00     0.045 C 
ATOM     33  C   UNL     1      -4.062 -21.202 -11.869  1.00  0.00     0.016 C 
ATOM     34  C   UNL     1      -4.604 -19.999  -9.738  1.00  0.00     0.016 C 
ATOM     35  C   UNL     1      -0.847 -17.987 -13.585  1.00  0.00     0.016 C 
ATOM     36  C   UNL     1      -1.053 -17.092 -11.254  1.00  0.00     0.016 C 
ENDBRANCH  20  22
ENDBRANCH  15  20
ENDBRANCH  11  14
ENDBRANCH   7  10
ENDBRANCH   1   7
BRANCH   5  37
ATOM     37  N   UNL     1      -8.547 -16.641  -4.304  1.00  0.00     0.065 N 
ATOM     38  O   UNL     1      -7.549 -15.918  -4.460  1.00  0.00    -0.258 OA
ATOM     39  O   UNL     1      -8.506 -17.872  -4.169  1.00  0.00    -0.258 OA
ENDBRANCH   5  37
BRANCH   4  40
ATOM     40  N   UNL     1     -10.368 -16.755  -2.030  1.00  0.00    -0.379 N 
ATOM     41  H   UNL     1     -10.122 -17.731  -2.232  1.00  0.00     0.160 HD
BRANCH  40  42
ATOM     42  C   UNL     1      -9.594 -16.212  -0.910  1.00  0.00     0.124 C 
BRANCH  42  43
ATOM     43  C   UNL     1     -10.057 -16.789   0.433  1.00  0.00     0.096 C 
BRANCH  43  44
ATOM     44  S   UNL     1      -9.844 -18.605   0.512  1.00  0.00    -0.124 SA
BRANCH  44  45
ATOM     45  C   UNL     1      -8.661 -18.726   1.841  1.00  0.00     0.007 A 
ATOM     46  C   UNL     1      -8.153 -17.557   2.417  1.00  0.00     0.015 A 
ATOM     47  C   UNL     1      -8.221 -19.968   2.311  1.00  0.00     0.015 A 
ATOM     48  C   UNL     1      -7.236 -17.629   3.467  1.00  0.00     0.001 A 
ATOM     49  C   UNL     1      -7.302 -20.039   3.360  1.00  0.00     0.001 A 
ATOM     50  C   UNL     1      -6.814 -18.869   3.941  1.00  0.00     0.000 A 
ENDBRANCH  44  45
ENDBRANCH  43  44
ENDBRANCH  42  43
ENDBRANCH  40  42
ENDBRANCH   4  40
TORSDOF 11
ENDMDL
MODEL 4
REMARK VINA RESULT:      -7.0      3.467      4.686
REMARK SMILES C=C(c1ccc(C(=O)NS(=O)(=O)c2ccc(NCCSc3ccccc3)c([N+](=O)[O-])c2)cc1)c1cc2c(cc1C)C(C)(C)CCC2(C)C
REMARK SMILES IDX 13 1 14 2 15 3 16 4 27 5 31 6 10 7 11 8 12 9 9 10 7 11 8 12
REMARK SMILES IDX 6 14 3 15 4 16 33 17 5 18 32 19 2 20 1 21 34 22 35 23 39 24
REMARK SMILES IDX 36 25 38 26 37 27 46 28 41 29 45 30 44 31 40 32 47 33 48 34
REMARK SMILES IDX 42 35 43 36 28 37 29 38 30 39 17 40 18 42 19 43 20 44 21 45
REMARK SMILES IDX 22 46 26 47 23 48 25 49 24 50
REMARK H PARENT 9 13 17 41
ROOT
ATOM      1  C   UNL     1     -11.013 -14.730  -7.291  1.00  0.00     0.094 A 
ATOM      2  C   UNL     1     -12.081 -14.916  -6.417  1.00  0.00     0.025 A 
ATOM      3  C   UNL     1     -11.883 -15.595  -5.207  1.00  0.00     0.034 A 
ATOM      4  C   UNL     1     -10.622 -16.084  -4.821  1.00  0.00     0.113 A 
ATOM      5  C   UNL     1      -9.566 -15.895  -5.750  1.00  0.00     0.293 A 
ATOM      6  C   UNL     1      -9.751 -15.226  -6.974  1.00  0.00     0.110 A 
ENDROOT
BRANCH   1   7
ATOM      7  S   UNL     1     -11.270 -13.927  -8.851  1.00  0.00     0.264 S 
ATOM      8  O   UNL     1     -12.481 -14.486  -9.413  1.00  0.00    -0.201 OA
ATOM      9  O   UNL     1     -11.116 -12.500  -8.689  1.00  0.00    -0.201 OA
BRANCH   7  10
ATOM     10  N   UNL     1     -10.035 -14.508  -9.799  1.00  0.00    -0.245 N 
ATOM     11  C   UNL     1     -10.011 -14.446 -11.195  1.00  0.00     0.264 C 
ATOM     12  O   UNL     1     -10.860 -13.863 -11.849  1.00  0.00    -0.268 OA
ATOM     13  H   UNL     1      -9.341 -15.001  -9.252  1.00  0.00     0.183 HD
BRANCH  11  14
ATOM     14  C   UNL     1      -8.864 -15.126 -11.863  1.00  0.00     0.040 A 
ATOM     15  C   UNL     1      -6.773 -16.408 -13.269  1.00  0.00    -0.018 A 
ATOM     16  C   UNL     1      -7.664 -15.555 -13.934  1.00  0.00     0.009 A 
ATOM     17  C   UNL     1      -6.941 -16.608 -11.891  1.00  0.00     0.009 A 
ATOM     18  C   UNL     1      -8.697 -14.917 -13.239  1.00  0.00     0.014 A 
ATOM     19  C   UNL     1      -7.972 -15.970 -11.190  1.00  0.00     0.014 A 
BRANCH  15  20
ATOM     20  C   UNL     1      -5.706 -17.140 -13.994  1.00  0.00    -0.018 C 
ATOM     21  C   UNL     1      -6.042 -17.958 -15.009  1.00  0.00     0.018 C 
BRANCH  20  22
ATOM     22  C   UNL     1      -4.259 -17.009 -13.683  1.00  0.00    -0.015 A 
ATOM     23  C   UNL     1      -3.638 -18.005 -12.910  1.00  0.00     0.013 A 
ATOM     24  C   UNL     1      -3.490 -15.938 -14.155  1.00  0.00    -0.043 A 
ATOM     25  C   UNL     1      -2.261 -17.976 -12.593  1.00  0.00    -0.038 A 
ATOM     26  C   UNL     1      -2.114 -15.921 -13.876  1.00  0.00     0.008 A 
ATOM     27  C   UNL     1      -1.474 -16.929 -13.121  1.00  0.00    -0.038 A 
ATOM     28  C   UNL     1      -1.669 -19.093 -11.724  1.00  0.00    -0.010 C 
ATOM     29  C   UNL     1       0.038 -16.828 -12.870  1.00  0.00    -0.010 C 
ATOM     30  C   UNL     1      -0.251 -18.737 -11.222  1.00  0.00     0.012 C 
ATOM     31  C   UNL     1       0.614 -18.155 -12.327  1.00  0.00     0.012 C 
ATOM     32  C   UNL     1      -4.082 -14.824 -14.975  1.00  0.00     0.045 C 
ATOM     33  C   UNL     1      -1.618 -20.396 -12.552  1.00  0.00     0.016 C 
ATOM     34  C   UNL     1      -2.527 -19.350 -10.463  1.00  0.00     0.016 C 
ATOM     35  C   UNL     1       0.818 -16.514 -14.169  1.00  0.00     0.016 C 
ATOM     36  C   UNL     1       0.299 -15.687 -11.861  1.00  0.00     0.016 C 
ENDBRANCH  20  22
ENDBRANCH  15  20
ENDBRANCH  11  14
ENDBRANCH   7  10
ENDBRANCH   1   7
BRANCH   5  37
ATOM     37  N   UNL     1      -8.211 -16.379  -5.456  1.00  0.00     0.065 N 
ATOM     38  O   UNL     1      -7.675 -16.005  -4.400  1.00  0.00    -0.258 OA
ATOM     39  O   UNL     1      -7.668 -17.105  -6.300  1.00  0.00    -0.258 OA
ENDBRANCH   5  37
BRANCH   4  40
ATOM     40  N   UNL     1     -10.462 -16.848  -3.663  1.00  0.00    -0.379 N 
ATOM     41  H   UNL     1     -10.455 -16.285  -2.805  1.00  0.00     0.160 HD
BRANCH  40  42
ATOM     42  C   UNL     1     -11.083 -18.160  -3.457  1.00  0.00     0.124 C 
BRANCH  42  43
ATOM     43  C   UNL     1     -10.456 -19.233  -4.354  1.00  0.00     0.096 C 
BRANCH  43  44
ATOM     44  S   UNL     1      -9.889 -20.686  -3.396  1.00  0.00    -0.124 SA
BRANCH  44  45
ATOM     45  C   UNL     1      -8.624 -21.309  -4.487  1.00  0.00     0.007 A 
ATOM     46  C   UNL     1      -8.120 -22.599  -4.287  1.00  0.00     0.015 A 
ATOM     47  C   UNL     1      -8.116 -20.529  -5.531  1.00  0.00     0.015 A 
ATOM     48  C   UNL     1      -7.139 -23.111  -5.137  1.00  0.00     0.001 A 
ATOM     49  C   UNL     1      -7.133 -21.042  -6.379  1.00  0.00     0.001 A 
ATOM     50  C   UNL     1      -6.649 -22.335  -6.185  1.00  0.00     0.000 A 
ENDBRANCH  44  45
ENDBRANCH  43  44
ENDBRANCH  42  43
ENDBRANCH  40  42
ENDBRANCH   4  40
TORSDOF 11
ENDMDL
MODEL 5
REMARK VINA RESULT:      -6.8      5.560     11.400
REMARK SMILES C=C(c1ccc(C(=O)NS(=O)(=O)c2ccc(NCCSc3ccccc3)c([N+](=O)[O-])c2)cc1)c1cc2c(cc1C)C(C)(C)CCC2(C)C
REMARK SMILES IDX 13 1 14 2 15 3 16 4 27 5 31 6 10 7 11 8 12 9 9 10 7 11 8 12
REMARK SMILES IDX 6 14 3 15 4 16 33 17 5 18 32 19 2 20 1 21 34 22 35 23 39 24
REMARK SMILES IDX 36 25 38 26 37 27 46 28 41 29 45 30 44 31 40 32 47 33 48 34
REMARK SMILES IDX 42 35 43 36 28 37 29 38 30 39 17 40 18 42 19 43 20 44 21 45
REMARK SMILES IDX 22 46 26 47 23 48 25 49 24 50
REMARK H PARENT 9 13 17 41
ROOT
ATOM      1  C   UNL     1      -8.294 -17.502  -8.629  1.00  0.00     0.094 A 
ATOM      2  C   UNL     1      -9.158 -16.672  -9.338  1.00  0.00     0.025 A 
ATOM      3  C   UNL     1      -9.836 -15.639  -8.676  1.00  0.00     0.034 A 
ATOM      4  C   UNL     1      -9.657 -15.387  -7.304  1.00  0.00     0.113 A 
ATOM      5  C   UNL     1      -8.788 -16.269  -6.613  1.00  0.00     0.293 A 
ATOM      6  C   UNL     1      -8.109 -17.318  -7.260  1.00  0.00     0.110 A 
ENDROOT
BRANCH   1   7
ATOM      7  S   UNL     1      -7.482 -18.849  -9.447  1.00  0.00     0.264 S 
ATOM      8  O   UNL     1      -8.468 -19.468 -10.309  1.00  0.00    -0.201 OA
ATOM      9  O   UNL     1      -6.214 -18.400  -9.972  1.00  0.00    -0.201 OA
BRANCH   7  10
ATOM     10  N   UNL     1      -7.214 -19.945  -8.226  1.00  0.00    -0.245 N 
ATOM     11  C   UNL     1      -6.017 -20.642  -8.036  1.00  0.00     0.264 C 
ATOM     12  O   UNL     1      -5.015 -20.433  -8.698  1.00  0.00    -0.268 OA
ATOM     13  H   UNL     1      -8.053 -20.123  -7.690  1.00  0.00     0.183 HD
BRANCH  11  14
ATOM     14  C   UNL     1      -6.019 -21.664  -6.950  1.00  0.00     0.040 A 
ATOM     15  C   UNL     1      -5.960 -23.708  -4.998  1.00  0.00    -0.018 A 
ATOM     16  C   UNL     1      -5.076 -23.732  -6.086  1.00  0.00     0.009 A 
ATOM     17  C   UNL     1      -6.870 -22.646  -4.899  1.00  0.00     0.009 A 
ATOM     18  C   UNL     1      -5.102 -22.720  -7.051  1.00  0.00     0.014 A 
ATOM     19  C   UNL     1      -6.898 -21.628  -5.861  1.00  0.00     0.014 A 
BRANCH  15  20
ATOM     20  C   UNL     1      -5.990 -24.800  -3.994  1.00  0.00    -0.018 C 
ATOM     21  C   UNL     1      -5.820 -26.072  -4.399  1.00  0.00     0.018 C 
BRANCH  20  22
ATOM     22  C   UNL     1      -6.175 -24.574  -2.537  1.00  0.00    -0.015 A 
ATOM     23  C   UNL     1      -5.043 -24.348  -1.735  1.00  0.00     0.013 A 
ATOM     24  C   UNL     1      -7.442 -24.555  -1.941  1.00  0.00    -0.043 A 
ATOM     25  C   UNL     1      -5.129 -24.094  -0.347  1.00  0.00    -0.038 A 
ATOM     26  C   UNL     1      -7.540 -24.266  -0.571  1.00  0.00     0.008 A 
ATOM     27  C   UNL     1      -6.411 -24.013   0.240  1.00  0.00    -0.038 A 
ATOM     28  C   UNL     1      -3.841 -23.880   0.457  1.00  0.00    -0.010 C 
ATOM     29  C   UNL     1      -6.616 -23.702   1.730  1.00  0.00    -0.010 C 
ATOM     30  C   UNL     1      -4.101 -23.933   1.979  1.00  0.00     0.012 C 
ATOM     31  C   UNL     1      -5.331 -23.135   2.374  1.00  0.00     0.012 C 
ATOM     32  C   UNL     1      -8.702 -24.803  -2.727  1.00  0.00     0.045 C 
ATOM     33  C   UNL     1      -3.237 -22.509   0.076  1.00  0.00     0.016 C 
ATOM     34  C   UNL     1      -2.792 -24.976   0.153  1.00  0.00     0.016 C 
ATOM     35  C   UNL     1      -7.719 -22.639   1.950  1.00  0.00     0.016 C 
ATOM     36  C   UNL     1      -7.041 -24.998   2.454  1.00  0.00     0.016 C 
ENDBRANCH  20  22
ENDBRANCH  15  20
ENDBRANCH  11  14
ENDBRANCH   7  10
ENDBRANCH   1   7
BRANCH   5  37
ATOM     37  N   UNL     1      -8.540 -16.107  -5.175  1.00  0.00     0.065 N 
ATOM     38  O   UNL     1      -8.375 -14.956  -4.737  1.00  0.00    -0.258 OA
ATOM     39  O   UNL     1      -8.474 -17.135  -4.487  1.00  0.00    -0.258 OA
ENDBRANCH   5  37
BRANCH   4  40
ATOM     40  N   UNL     1     -10.417 -14.422  -6.638  1.00  0.00    -0.379 N 
ATOM     41  H   UNL     1      -9.900 -13.949  -5.887  1.00  0.00     0.160 HD
BRANCH  40  42
ATOM     42  C   UNL     1     -11.365 -13.525  -7.304  1.00  0.00     0.124 C 
BRANCH  42  43
ATOM     43  C   UNL     1     -12.178 -12.706  -6.295  1.00  0.00     0.096 C 
BRANCH  43  44
ATOM     44  S   UNL     1     -13.618 -13.635  -5.655  1.00  0.00    -0.124 SA
BRANCH  44  45
ATOM     45  C   UNL     1     -14.791 -12.306  -5.459  1.00  0.00     0.007 A 
ATOM     46  C   UNL     1     -14.346 -11.061  -5.000  1.00  0.00     0.015 A 
ATOM     47  C   UNL     1     -16.148 -12.487  -5.742  1.00  0.00     0.015 A 
ATOM     48  C   UNL     1     -15.244 -10.003  -4.853  1.00  0.00     0.001 A 
ATOM     49  C   UNL     1     -17.046 -11.428  -5.592  1.00  0.00     0.001 A 
ATOM     50  C   UNL     1     -16.593 -10.185  -5.152  1.00  0.00     0.000 A 
ENDBRANCH  44  45
ENDBRANCH  43  44
ENDBRANCH  42  43
ENDBRANCH  40  42
ENDBRANCH   4  40
TORSDOF 11
ENDMDL
MODEL 6
REMARK VINA RESULT:      -6.8     19.932     23.015
REMARK SMILES C=C(c1ccc(C(=O)NS(=O)(=O)c2ccc(NCCSc3ccccc3)c([N+](=O)[O-])c2)cc1)c1cc2c(cc1C)C(C)(C)CCC2(C)C
REMARK SMILES IDX 13 1 14 2 15 3 16 4 27 5 31 6 10 7 11 8 12 9 9 10 7 11 8 12
REMARK SMILES IDX 6 14 3 15 4 16 33 17 5 18 32 19 2 20 1 21 34 22 35 23 39 24
REMARK SMILES IDX 36 25 38 26 37 27 46 28 41 29 45 30 44 31 40 32 47 33 48 34
REMARK SMILES IDX 42 35 43 36 28 37 29 38 30 39 17 40 18 42 19 43 20 44 21 45
REMARK SMILES IDX 22 46 26 47 23 48 25 49 24 50
REMARK H PARENT 9 13 17 41
ROOT
ATOM      1  C   UNL     1      -7.969   8.942  -7.645  1.00  0.00     0.094 A 
ATOM      2  C   UNL     1      -7.070   9.833  -7.064  1.00  0.00     0.025 A 
ATOM      3  C   UNL     1      -6.026  10.370  -7.828  1.00  0.00     0.034 A 
ATOM      4  C   UNL     1      -5.859  10.060  -9.190  1.00  0.00     0.113 A 
ATOM      5  C   UNL     1      -6.781   9.132  -9.738  1.00  0.00     0.293 A 
ATOM      6  C   UNL     1      -7.828   8.574  -8.981  1.00  0.00     0.110 A 
ENDROOT
BRANCH   1   7
ATOM      7  S   UNL     1      -9.255   8.211  -6.668  1.00  0.00     0.264 S 
ATOM      8  O   UNL     1      -9.091   8.713  -5.319  1.00  0.00    -0.201 OA
ATOM      9  O   UNL     1     -10.517   8.336  -7.359  1.00  0.00    -0.201 OA
BRANCH   7  10
ATOM     10  N   UNL     1      -8.826   6.606  -6.595  1.00  0.00    -0.245 N 
ATOM     11  C   UNL     1      -9.417   5.666  -5.745  1.00  0.00     0.264 C 
ATOM     12  O   UNL     1     -10.380   5.920  -5.041  1.00  0.00    -0.268 OA
ATOM     13  H   UNL     1      -8.019   6.406  -7.170  1.00  0.00     0.183 HD
BRANCH  11  14
ATOM     14  C   UNL     1      -8.812   4.303  -5.751  1.00  0.00     0.040 A 
ATOM     15  C   UNL     1      -7.571   1.766  -5.638  1.00  0.00    -0.018 A 
ATOM     16  C   UNL     1      -7.648   2.576  -4.497  1.00  0.00     0.009 A 
ATOM     17  C   UNL     1      -8.126   2.242  -6.835  1.00  0.00     0.009 A 
ATOM     18  C   UNL     1      -8.265   3.830  -4.551  1.00  0.00     0.014 A 
ATOM     19  C   UNL     1      -8.747   3.496  -6.894  1.00  0.00     0.014 A 
BRANCH  15  20
ATOM     20  C   UNL     1      -6.872   0.458  -5.620  1.00  0.00    -0.018 C 
ATOM     21  C   UNL     1      -5.572   0.400  -5.966  1.00  0.00     0.018 C 
BRANCH  20  22
ATOM     22  C   UNL     1      -7.519  -0.816  -5.213  1.00  0.00    -0.015 A 
ATOM     23  C   UNL     1      -7.549  -1.158  -3.849  1.00  0.00     0.013 A 
ATOM     24  C   UNL     1      -8.121  -1.676  -6.140  1.00  0.00    -0.043 A 
ATOM     25  C   UNL     1      -8.170  -2.334  -3.371  1.00  0.00    -0.038 A 
ATOM     26  C   UNL     1      -8.773  -2.827  -5.670  1.00  0.00     0.008 A 
ATOM     27  C   UNL     1      -8.831  -3.167  -4.300  1.00  0.00    -0.038 A 
ATOM     28  C   UNL     1      -8.136  -2.641  -1.869  1.00  0.00    -0.010 C 
ATOM     29  C   UNL     1      -9.570  -4.445  -3.879  1.00  0.00    -0.010 C 
ATOM     30  C   UNL     1      -8.574  -4.092  -1.571  1.00  0.00     0.012 C 
ATOM     31  C   UNL     1      -9.816  -4.484  -2.354  1.00  0.00     0.012 C 
ATOM     32  C   UNL     1      -8.119  -1.390  -7.618  1.00  0.00     0.045 C 
ATOM     33  C   UNL     1      -9.071  -1.652  -1.136  1.00  0.00     0.016 C 
ATOM     34  C   UNL     1      -6.711  -2.486  -1.287  1.00  0.00     0.016 C 
ATOM     35  C   UNL     1     -10.962  -4.552  -4.546  1.00  0.00     0.016 C 
ATOM     36  C   UNL     1      -8.732  -5.670  -4.310  1.00  0.00     0.016 C 
ENDBRANCH  20  22
ENDBRANCH  15  20
ENDBRANCH  11  14
ENDBRANCH   7  10
ENDBRANCH   1   7
BRANCH   5  37
ATOM     37  N   UNL     1      -6.691   8.726 -11.146  1.00  0.00     0.065 N 
ATOM     38  O   UNL     1      -6.181   7.623 -11.404  1.00  0.00    -0.258 OA
ATOM     39  O   UNL     1      -7.099   9.527 -11.999  1.00  0.00    -0.258 OA
ENDBRANCH   5  37
BRANCH   4  40
ATOM     40  N   UNL     1      -4.755  10.522  -9.911  1.00  0.00    -0.379 N 
ATOM     41  H   UNL     1      -4.941  11.394 -10.419  1.00  0.00     0.160 HD
BRANCH  40  42
ATOM     42  C   UNL     1      -3.374  10.449  -9.425  1.00  0.00     0.124 C 
BRANCH  42  43
ATOM     43  C   UNL     1      -2.869   9.003  -9.364  1.00  0.00     0.096 C 
BRANCH  43  44
ATOM     44  S   UNL     1      -2.138   8.597  -7.736  1.00  0.00    -0.124 SA
BRANCH  44  45
ATOM     45  C   UNL     1      -3.507   7.741  -6.980  1.00  0.00     0.007 A 
ATOM     46  C   UNL     1      -3.795   7.965  -5.629  1.00  0.00     0.015 A 
ATOM     47  C   UNL     1      -4.291   6.840  -7.707  1.00  0.00     0.015 A 
ATOM     48  C   UNL     1      -4.870   7.315  -5.021  1.00  0.00     0.001 A 
ATOM     49  C   UNL     1      -5.364   6.189  -7.097  1.00  0.00     0.001 A 
ATOM     50  C   UNL     1      -5.657   6.430  -5.755  1.00  0.00     0.000 A 
ENDBRANCH  44  45
ENDBRANCH  43  44
ENDBRANCH  42  43
ENDBRANCH  40  42
ENDBRANCH   4  40
TORSDOF 11
ENDMDL
MODEL 7
REMARK VINA RESULT:      -6.6     30.134     36.703
REMARK SMILES C=C(c1ccc(C(=O)NS(=O)(=O)c2ccc(NCCSc3ccccc3)c([N+](=O)[O-])c2)cc1)c1cc2c(cc1C)C(C)(C)CCC2(C)C
REMARK SMILES IDX 13 1 14 2 15 3 16 4 27 5 31 6 10 7 11 8 12 9 9 10 7 11 8 12
REMARK SMILES IDX 6 14 3 15 4 16 33 17 5 18 32 19 2 20 1 21 34 22 35 23 39 24
REMARK SMILES IDX 36 25 38 26 37 27 46 28 41 29 45 30 44 31 40 32 47 33 48 34
REMARK SMILES IDX 42 35 43 36 28 37 29 38 30 39 17 40 18 42 19 43 20 44 21 45
REMARK SMILES IDX 22 46 26 47 23 48 25 49 24 50
REMARK H PARENT 9 13 17 41
ROOT
ATOM      1  C   UNL     1      -5.625   6.313  16.335  1.00  0.00     0.094 A 
ATOM      2  C   UNL     1      -5.448   4.997  15.917  1.00  0.00     0.025 A 
ATOM      3  C   UNL     1      -5.135   4.725  14.578  1.00  0.00     0.034 A 
ATOM      4  C   UNL     1      -4.965   5.748  13.627  1.00  0.00     0.113 A 
ATOM      5  C   UNL     1      -5.178   7.072  14.087  1.00  0.00     0.293 A 
ATOM      6  C   UNL     1      -5.504   7.362  15.425  1.00  0.00     0.110 A 
ENDROOT
BRANCH   1   7
ATOM      7  S   UNL     1      -6.083   6.660  18.012  1.00  0.00     0.264 S 
ATOM      8  O   UNL     1      -7.145   7.644  17.959  1.00  0.00    -0.201 OA
ATOM      9  O   UNL     1      -6.255   5.420  18.731  1.00  0.00    -0.201 OA
BRANCH   7  10
ATOM     10  N   UNL     1      -4.764   7.469  18.619  1.00  0.00    -0.245 N 
ATOM     11  C   UNL     1      -4.609   8.858  18.602  1.00  0.00     0.264 C 
ATOM     12  O   UNL     1      -5.484   9.620  18.224  1.00  0.00    -0.268 OA
ATOM     13  H   UNL     1      -4.037   6.832  18.917  1.00  0.00     0.183 HD
BRANCH  11  14
ATOM     14  C   UNL     1      -3.301   9.379  19.094  1.00  0.00     0.040 A 
ATOM     15  C   UNL     1      -0.902  10.449  20.141  1.00  0.00    -0.018 A 
ATOM     16  C   UNL     1      -2.039  10.317  20.950  1.00  0.00     0.009 A 
ATOM     17  C   UNL     1      -0.981  10.035  18.803  1.00  0.00     0.009 A 
ATOM     18  C   UNL     1      -3.226   9.784  20.434  1.00  0.00     0.014 A 
ATOM     19  C   UNL     1      -2.166   9.499  18.282  1.00  0.00     0.014 A 
BRANCH  15  20
ATOM     20  C   UNL     1       0.349  11.063  20.649  1.00  0.00    -0.018 C 
ATOM     21  C   UNL     1       0.275  12.161  21.424  1.00  0.00     0.018 C 
BRANCH  20  22
ATOM     22  C   UNL     1       1.704  10.522  20.371  1.00  0.00    -0.015 A 
ATOM     23  C   UNL     1       2.525  11.188  19.445  1.00  0.00     0.013 A 
ATOM     24  C   UNL     1       2.199   9.384  21.020  1.00  0.00    -0.043 A 
ATOM     25  C   UNL     1       3.838  10.761  19.143  1.00  0.00    -0.038 A 
ATOM     26  C   UNL     1       3.516   8.975  20.755  1.00  0.00     0.008 A 
ATOM     27  C   UNL     1       4.358   9.651  19.844  1.00  0.00    -0.038 A 
ATOM     28  C   UNL     1       4.657  11.534  18.102  1.00  0.00    -0.010 C 
ATOM     29  C   UNL     1       5.786   9.132  19.621  1.00  0.00    -0.010 C 
ATOM     30  C   UNL     1       5.920  10.754  17.674  1.00  0.00     0.012 C 
ATOM     31  C   UNL     1       6.654  10.162  18.866  1.00  0.00     0.012 C 
ATOM     32  C   UNL     1       1.379   8.606  22.013  1.00  0.00     0.045 C 
ATOM     33  C   UNL     1       5.062  12.900  18.699  1.00  0.00     0.016 C 
ATOM     34  C   UNL     1       3.842  11.788  16.811  1.00  0.00     0.016 C 
ATOM     35  C   UNL     1       6.512   8.849  20.958  1.00  0.00     0.016 C 
ATOM     36  C   UNL     1       5.716   7.812  18.821  1.00  0.00     0.016 C 
ENDBRANCH  20  22
ENDBRANCH  15  20
ENDBRANCH  11  14
ENDBRANCH   7  10
ENDBRANCH   1   7
BRANCH   5  37
ATOM     37  N   UNL     1      -5.041   8.215  13.176  1.00  0.00     0.065 N 
ATOM     38  O   UNL     1      -3.998   8.887  13.233  1.00  0.00    -0.258 OA
ATOM     39  O   UNL     1      -5.995   8.465  12.425  1.00  0.00    -0.258 OA
ENDBRANCH   5  37
BRANCH   4  40
ATOM     40  N   UNL     1      -4.756   5.457  12.277  1.00  0.00    -0.379 N 
ATOM     41  H   UNL     1      -4.906   6.265  11.662  1.00  0.00     0.160 HD
BRANCH  40  42
ATOM     42  C   UNL     1      -3.688   4.580  11.786  1.00  0.00     0.124 C 
BRANCH  42  43
ATOM     43  C   UNL     1      -2.299   5.162  12.073  1.00  0.00     0.096 C 
BRANCH  43  44
ATOM     44  S   UNL     1      -1.281   5.294  10.558  1.00  0.00    -0.124 SA
BRANCH  44  45
ATOM     45  C   UNL     1      -0.992   7.054  10.523  1.00  0.00     0.007 A 
ATOM     46  C   UNL     1       0.322   7.533  10.545  1.00  0.00     0.015 A 
ATOM     47  C   UNL     1      -2.054   7.963  10.488  1.00  0.00     0.015 A 
ATOM     48  C   UNL     1       0.570   8.906  10.505  1.00  0.00     0.001 A 
ATOM     49  C   UNL     1      -1.803   9.336  10.451  1.00  0.00     0.001 A 
ATOM     50  C   UNL     1      -0.491   9.807  10.454  1.00  0.00     0.000 A 
ENDBRANCH  44  45
ENDBRANCH  43  44
ENDBRANCH  42  43
ENDBRANCH  40  42
ENDBRANCH   4  40
TORSDOF 11
ENDMDL
MODEL 8
REMARK VINA RESULT:      -6.6     19.288     24.019
REMARK SMILES C=C(c1ccc(C(=O)NS(=O)(=O)c2ccc(NCCSc3ccccc3)c([N+](=O)[O-])c2)cc1)c1cc2c(cc1C)C(C)(C)CCC2(C)C
REMARK SMILES IDX 13 1 14 2 15 3 16 4 27 5 31 6 10 7 11 8 12 9 9 10 7 11 8 12
REMARK SMILES IDX 6 14 3 15 4 16 33 17 5 18 32 19 2 20 1 21 34 22 35 23 39 24
REMARK SMILES IDX 36 25 38 26 37 27 46 28 41 29 45 30 44 31 40 32 47 33 48 34
REMARK SMILES IDX 42 35 43 36 28 37 29 38 30 39 17 40 18 42 19 43 20 44 21 45
REMARK SMILES IDX 22 46 26 47 23 48 25 49 24 50
REMARK H PARENT 9 13 17 41
ROOT
ATOM      1  C   UNL     1       4.807 -21.785  13.455  1.00  0.00     0.094 A 
ATOM      2  C   UNL     1       4.665 -22.787  12.499  1.00  0.00     0.025 A 
ATOM      3  C   UNL     1       5.790 -23.502  12.064  1.00  0.00     0.034 A 
ATOM      4  C   UNL     1       7.075 -23.261  12.582  1.00  0.00     0.113 A 
ATOM      5  C   UNL     1       7.180 -22.217  13.536  1.00  0.00     0.293 A 
ATOM      6  C   UNL     1       6.063 -21.482  13.975  1.00  0.00     0.110 A 
ENDROOT
BRANCH   1   7
ATOM      7  S   UNL     1       3.399 -20.835  13.963  1.00  0.00     0.264 S 
ATOM      8  O   UNL     1       3.150 -21.167  15.350  1.00  0.00    -0.201 OA
ATOM      9  O   UNL     1       3.568 -19.462  13.547  1.00  0.00    -0.201 OA
BRANCH   7  10
ATOM     10  N   UNL     1       2.141 -21.514  13.114  1.00  0.00    -0.245 N 
ATOM     11  C   UNL     1       0.801 -21.137  13.246  1.00  0.00     0.264 C 
ATOM     12  O   UNL     1       0.440 -20.196  13.934  1.00  0.00    -0.268 OA
ATOM     13  H   UNL     1       2.445 -22.302  12.558  1.00  0.00     0.183 HD
BRANCH  11  14
ATOM     14  C   UNL     1      -0.188 -21.948  12.478  1.00  0.00     0.040 A 
ATOM     15  C   UNL     1      -2.044 -23.602  11.134  1.00  0.00    -0.018 A 
ATOM     16  C   UNL     1      -1.827 -23.743  12.511  1.00  0.00     0.009 A 
ATOM     17  C   UNL     1      -1.323 -22.620  10.440  1.00  0.00     0.009 A 
ATOM     18  C   UNL     1      -0.911 -22.923  13.178  1.00  0.00     0.014 A 
ATOM     19  C   UNL     1      -0.406 -21.794  11.104  1.00  0.00     0.014 A 
BRANCH  15  20
ATOM     20  C   UNL     1      -2.967 -24.497  10.394  1.00  0.00    -0.018 C 
ATOM     21  C   UNL     1      -4.265 -24.543  10.748  1.00  0.00     0.018 C 
BRANCH  20  22
ATOM     22  C   UNL     1      -2.549 -25.348   9.250  1.00  0.00    -0.015 A 
ATOM     23  C   UNL     1      -2.119 -26.662   9.503  1.00  0.00     0.013 A 
ATOM     24  C   UNL     1      -2.592 -24.891   7.927  1.00  0.00    -0.043 A 
ATOM     25  C   UNL     1      -1.733 -27.550   8.473  1.00  0.00    -0.038 A 
ATOM     26  C   UNL     1      -2.247 -25.778   6.895  1.00  0.00     0.008 A 
ATOM     27  C   UNL     1      -1.837 -27.109   7.135  1.00  0.00    -0.038 A 
ATOM     28  C   UNL     1      -1.255 -28.960   8.840  1.00  0.00    -0.010 C 
ATOM     29  C   UNL     1      -1.482 -28.008   5.942  1.00  0.00    -0.010 C 
ATOM     30  C   UNL     1      -0.584 -29.667   7.640  1.00  0.00     0.012 C 
ATOM     31  C   UNL     1      -1.381 -29.492   6.359  1.00  0.00     0.012 C 
ATOM     32  C   UNL     1      -3.026 -23.494   7.575  1.00  0.00     0.045 C 
ATOM     33  C   UNL     1      -2.467 -29.788   9.323  1.00  0.00     0.016 C 
ATOM     34  C   UNL     1      -0.203 -28.928   9.973  1.00  0.00     0.016 C 
ATOM     35  C   UNL     1      -2.555 -27.940   4.830  1.00  0.00     0.016 C 
ATOM     36  C   UNL     1      -0.137 -27.535   5.346  1.00  0.00     0.016 C 
ENDBRANCH  20  22
ENDBRANCH  15  20
ENDBRANCH  11  14
ENDBRANCH   7  10
ENDBRANCH   1   7
BRANCH   5  37
ATOM     37  N   UNL     1       8.477 -21.871  14.132  1.00  0.00     0.065 N 
ATOM     38  O   UNL     1       8.914 -20.722  13.952  1.00  0.00    -0.258 OA
ATOM     39  O   UNL     1       9.078 -22.761  14.750  1.00  0.00    -0.258 OA
ENDBRANCH   5  37
BRANCH   4  40
ATOM     40  N   UNL     1       8.200 -23.909  12.065  1.00  0.00    -0.379 N 
ATOM     41  H   UNL     1       8.063 -24.918  11.941  1.00  0.00     0.160 HD
BRANCH  40  42
ATOM     42  C   UNL     1       9.069 -23.338  11.032  1.00  0.00     0.124 C 
BRANCH  42  43
ATOM     43  C   UNL     1      10.030 -24.385  10.457  1.00  0.00     0.096 C 
BRANCH  43  44
ATOM     44  S   UNL     1       9.148 -25.857   9.822  1.00  0.00    -0.124 SA
BRANCH  44  45
ATOM     45  C   UNL     1      10.131 -26.217   8.379  1.00  0.00     0.007 A 
ATOM     46  C   UNL     1      10.822 -25.180   7.743  1.00  0.00     0.015 A 
ATOM     47  C   UNL     1      10.214 -27.514   7.863  1.00  0.00     0.015 A 
ATOM     48  C   UNL     1      11.608 -25.443   6.620  1.00  0.00     0.001 A 
ATOM     49  C   UNL     1      10.999 -27.775   6.738  1.00  0.00     0.001 A 
ATOM     50  C   UNL     1      11.700 -26.740   6.120  1.00  0.00     0.000 A 
ENDBRANCH  44  45
ENDBRANCH  43  44
ENDBRANCH  42  43
ENDBRANCH  40  42
ENDBRANCH   4  40
TORSDOF 11
ENDMDL
MODEL 9
REMARK VINA RESULT:      -6.6      3.912      6.735
REMARK SMILES C=C(c1ccc(C(=O)NS(=O)(=O)c2ccc(NCCSc3ccccc3)c([N+](=O)[O-])c2)cc1)c1cc2c(cc1C)C(C)(C)CCC2(C)C
REMARK SMILES IDX 13 1 14 2 15 3 16 4 27 5 31 6 10 7 11 8 12 9 9 10 7 11 8 12
REMARK SMILES IDX 6 14 3 15 4 16 33 17 5 18 32 19 2 20 1 21 34 22 35 23 39 24
REMARK SMILES IDX 36 25 38 26 37 27 46 28 41 29 45 30 44 31 40 32 47 33 48 34
REMARK SMILES IDX 42 35 43 36 28 37 29 38 30 39 17 40 18 42 19 43 20 44 21 45
REMARK SMILES IDX 22 46 26 47 23 48 25 49 24 50
REMARK H PARENT 9 13 17 41
ROOT
ATOM      1  C   UNL     1     -12.494 -15.577  -4.111  1.00  0.00     0.094 A 
ATOM      2  C   UNL     1     -13.694 -16.281  -4.161  1.00  0.00     0.025 A 
ATOM      3  C   UNL     1     -14.846 -15.666  -4.670  1.00  0.00     0.034 A 
ATOM      4  C   UNL     1     -14.833 -14.349  -5.164  1.00  0.00     0.113 A 
ATOM      5  C   UNL     1     -13.598 -13.657  -5.074  1.00  0.00     0.293 A 
ATOM      6  C   UNL     1     -12.435 -14.257  -4.555  1.00  0.00     0.110 A 
ENDROOT
BRANCH   1   7
ATOM      7  S   UNL     1     -11.049 -16.328  -3.412  1.00  0.00     0.264 S 
ATOM      8  O   UNL     1     -10.138 -15.252  -3.081  1.00  0.00    -0.201 OA
ATOM      9  O   UNL     1     -11.444 -17.299  -2.418  1.00  0.00    -0.201 OA
BRANCH   7  10
ATOM     10  N   UNL     1     -10.353 -17.114  -4.700  1.00  0.00    -0.245 N 
ATOM     11  C   UNL     1      -9.155 -17.832  -4.637  1.00  0.00     0.264 C 
ATOM     12  O   UNL     1      -8.554 -18.032  -3.594  1.00  0.00    -0.268 OA
ATOM     13  H   UNL     1     -10.848 -16.933  -5.563  1.00  0.00     0.183 HD
BRANCH  11  14
ATOM     14  C   UNL     1      -8.642 -18.369  -5.931  1.00  0.00     0.040 A 
ATOM     15  C   UNL     1      -7.693 -19.238  -8.448  1.00  0.00    -0.018 A 
ATOM     16  C   UNL     1      -7.610 -17.888  -8.079  1.00  0.00     0.009 A 
ATOM     17  C   UNL     1      -8.254 -20.146  -7.539  1.00  0.00     0.009 A 
ATOM     18  C   UNL     1      -8.076 -17.457  -6.832  1.00  0.00     0.014 A 
ATOM     19  C   UNL     1      -8.720 -19.720  -6.288  1.00  0.00     0.014 A 
BRANCH  15  20
ATOM     20  C   UNL     1      -7.258 -19.708  -9.786  1.00  0.00    -0.018 C 
ATOM     21  C   UNL     1      -8.059 -20.534 -10.485  1.00  0.00     0.018 C 
BRANCH  20  22
ATOM     22  C   UNL     1      -5.982 -19.301 -10.427  1.00  0.00    -0.015 A 
ATOM     23  C   UNL     1      -6.026 -18.455 -11.550  1.00  0.00     0.013 A 
ATOM     24  C   UNL     1      -4.737 -19.711  -9.937  1.00  0.00    -0.043 A 
ATOM     25  C   UNL     1      -4.861 -17.994 -12.203  1.00  0.00    -0.038 A 
ATOM     26  C   UNL     1      -3.573 -19.228 -10.556  1.00  0.00     0.008 A 
ATOM     27  C   UNL     1      -3.605 -18.358 -11.670  1.00  0.00    -0.038 A 
ATOM     28  C   UNL     1      -5.001 -17.092 -13.436  1.00  0.00    -0.010 C 
ATOM     29  C   UNL     1      -2.281 -17.877 -12.279  1.00  0.00    -0.010 C 
ATOM     30  C   UNL     1      -3.662 -16.949 -14.195  1.00  0.00     0.012 C 
ATOM     31  C   UNL     1      -2.498 -16.698 -13.253  1.00  0.00     0.012 C 
ATOM     32  C   UNL     1      -4.605 -20.627  -8.750  1.00  0.00     0.045 C 
ATOM     33  C   UNL     1      -5.496 -15.701 -12.983  1.00  0.00     0.016 C 
ATOM     34  C   UNL     1      -6.019 -17.666 -14.449  1.00  0.00     0.016 C 
ATOM     35  C   UNL     1      -1.297 -17.372 -11.196  1.00  0.00     0.016 C 
ATOM     36  C   UNL     1      -1.617 -19.058 -13.022  1.00  0.00     0.016 C 
ENDBRANCH  20  22
ENDBRANCH  15  20
ENDBRANCH  11  14
ENDBRANCH   7  10
ENDBRANCH   1   7
BRANCH   5  37
ATOM     37  N   UNL     1     -13.475 -12.273  -5.547  1.00  0.00     0.065 N 
ATOM     38  O   UNL     1     -14.250 -11.424  -5.076  1.00  0.00    -0.258 OA
ATOM     39  O   UNL     1     -12.626 -12.040  -6.419  1.00  0.00    -0.258 OA
ENDBRANCH   5  37
BRANCH   4  40
ATOM     40  N   UNL     1     -16.009 -13.714  -5.572  1.00  0.00    -0.379 N 
ATOM     41  H   UNL     1     -16.232 -12.881  -5.016  1.00  0.00     0.160 HD
BRANCH  40  42
ATOM     42  C   UNL     1     -16.416 -13.568  -6.972  1.00  0.00     0.124 C 
BRANCH  42  43
ATOM     43  C   UNL     1     -15.808 -14.663  -7.857  1.00  0.00     0.096 C 
BRANCH  43  44
ATOM     44  S   UNL     1     -14.466 -14.021  -8.923  1.00  0.00    -0.124 SA
BRANCH  44  45
ATOM     45  C   UNL     1     -13.267 -15.329  -8.743  1.00  0.00     0.007 A 
ATOM     46  C   UNL     1     -12.059 -15.067  -8.090  1.00  0.00     0.015 A 
ATOM     47  C   UNL     1     -13.508 -16.609  -9.254  1.00  0.00     0.015 A 
ATOM     48  C   UNL     1     -11.112 -16.080  -7.927  1.00  0.00     0.001 A 
ATOM     49  C   UNL     1     -12.559 -17.621  -9.092  1.00  0.00     0.001 A 
ATOM     50  C   UNL     1     -11.364 -17.357  -8.424  1.00  0.00     0.000 A 
ENDBRANCH  44  45
ENDBRANCH  43  44
ENDBRANCH  42  43
ENDBRANCH  40  42
ENDBRANCH   4  40
TORSDOF 11
ENDMDL
