MODEL 1
REMARK VINA RESULT:      -7.5      0.000      0.000
REMARK SMILES CC(=O)N[C@@H](Cc1c[nH]c2ccccc12)C(=O)Nc1ccc(C(=O)NS(=O)(=O)c2ccc(NCCSc3ccccc3)c([N+](=O)[O-])c2)cc1
REMARK SMILES IDX 23 1 24 2 25 3 22 5 19 6 20 7 49 8 21 9 48 10 18 11 16 12
REMARK SMILES IDX 17 13 5 15 4 16 2 17 3 18 1 19 6 21 7 22 8 23 15 24 9 25
REMARK SMILES IDX 14 26 10 27 13 28 11 29 12 30 26 32 27 33 28 34 29 35 30 36
REMARK SMILES IDX 47 37 31 38 43 39 32 40 44 41 45 42 46 43 33 44 34 46 35 47
REMARK SMILES IDX 36 48 37 49 38 50 42 51 39 52 41 53 40 54
REMARK H PARENT 25 4 18 14 4 20 9 31 33 45
ROOT
ATOM      1  C   UNL     1      -7.289   3.837  -7.667  1.00  0.00     0.264 C 
ATOM      2  O   UNL     1      -7.237   3.771  -8.885  1.00  0.00    -0.268 OA
ATOM      3  N   UNL     1      -7.220   5.039  -6.947  1.00  0.00    -0.245 N 
ATOM      4  H   UNL     1      -7.113   5.035  -5.940  1.00  0.00     0.183 HD
ENDROOT
BRANCH   1   5
ATOM      5  C   UNL     1      -7.437   2.605  -6.846  1.00  0.00     0.040 A 
ATOM      6  C   UNL     1      -7.718   0.335  -5.199  1.00  0.00     0.041 A 
ATOM      7  C   UNL     1      -7.757   0.211  -6.591  1.00  0.00     0.027 A 
ATOM      8  C   UNL     1      -7.538   1.605  -4.638  1.00  0.00     0.027 A 
ATOM      9  C   UNL     1      -7.620   1.339  -7.414  1.00  0.00     0.016 A 
ATOM     10  C   UNL     1      -7.392   2.732  -5.454  1.00  0.00     0.016 A 
BRANCH   6  11
ATOM     11  N   UNL     1      -7.834  -0.750  -4.307  1.00  0.00    -0.324 N 
ATOM     12  C   UNL     1      -6.984  -1.840  -4.177  1.00  0.00     0.247 C 
ATOM     13  O   UNL     1      -5.959  -2.041  -4.827  1.00  0.00    -0.272 OA
ATOM     14  H   UNL     1      -8.657  -0.746  -3.715  1.00  0.00     0.170 HD
BRANCH  12  15
ATOM     15  C   UNL     1      -7.395  -2.786  -3.029  1.00  0.00     0.176 C 
BRANCH  15  16
ATOM     16  N   UNL     1      -6.478  -3.925  -3.019  1.00  0.00    -0.344 N 
ATOM     17  C   UNL     1      -6.947  -5.187  -2.735  1.00  0.00     0.217 C 
ATOM     18  O   UNL     1      -8.093  -5.416  -2.368  1.00  0.00    -0.275 OA
ATOM     19  C   UNL     1      -5.910  -6.268  -2.880  1.00  0.00     0.114 C 
ATOM     20  H   UNL     1      -5.670  -3.858  -3.623  1.00  0.00     0.164 HD
ENDBRANCH  15  16
BRANCH  15  21
ATOM     21  C   UNL     1      -7.352  -1.988  -1.718  1.00  0.00     0.072 C 
BRANCH  21  22
ATOM     22  C   UNL     1      -8.500  -2.299  -0.804  1.00  0.00    -0.020 A 
ATOM     23  C   UNL     1      -8.430  -2.975   0.399  1.00  0.00     0.087 A 
ATOM     24  C   UNL     1      -9.875  -1.952  -1.006  1.00  0.00     0.003 A 
ATOM     25  N   UNL     1      -9.689  -3.030   0.935  1.00  0.00    -0.361 N 
ATOM     26  C   UNL     1     -10.579  -1.277  -2.026  1.00  0.00     0.010 A 
ATOM     27  C   UNL     1     -10.590  -2.417   0.097  1.00  0.00     0.046 A 
ATOM     28  C   UNL     1     -11.960  -1.095  -1.907  1.00  0.00     0.001 A 
ATOM     29  C   UNL     1     -11.971  -2.240   0.235  1.00  0.00     0.026 A 
ATOM     30  C   UNL     1     -12.644  -1.570  -0.791  1.00  0.00     0.002 A 
ATOM     31  H   UNL     1      -9.929  -3.458   1.820  1.00  0.00     0.166 HD
ENDBRANCH  21  22
ENDBRANCH  15  21
ENDBRANCH  12  15
ENDBRANCH   6  11
ENDBRANCH   1   5
BRANCH   3  32
ATOM     32  S   UNL     1      -6.975   6.505  -7.708  1.00  0.00     0.264 S 
ATOM     33  O   UNL     1      -5.647   6.536  -8.278  1.00  0.00    -0.201 OA
ATOM     34  O   UNL     1      -8.161   6.849  -8.461  1.00  0.00    -0.201 OA
BRANCH  32  35
ATOM     35  C   UNL     1      -6.928   7.599  -6.300  1.00  0.00     0.094 A 
ATOM     36  C   UNL     1      -5.712   7.941  -5.718  1.00  0.00     0.025 A 
ATOM     37  C   UNL     1      -8.123   8.082  -5.771  1.00  0.00     0.110 A 
ATOM     38  C   UNL     1      -5.688   8.777  -4.594  1.00  0.00     0.034 A 
ATOM     39  C   UNL     1      -8.081   8.926  -4.647  1.00  0.00     0.293 A 
ATOM     40  C   UNL     1      -6.867   9.270  -4.002  1.00  0.00     0.113 A 
BRANCH  39  41
ATOM     41  N   UNL     1      -9.363   9.447  -4.166  1.00  0.00     0.065 N 
ATOM     42  O   UNL     1      -9.518  10.677  -4.197  1.00  0.00    -0.258 OA
ATOM     43  O   UNL     1     -10.212   8.637  -3.767  1.00  0.00    -0.258 OA
ENDBRANCH  39  41
BRANCH  40  44
ATOM     44  N   UNL     1      -6.815  10.179  -2.933  1.00  0.00    -0.379 N 
ATOM     45  H   UNL     1      -7.716  10.665  -2.809  1.00  0.00     0.160 HD
BRANCH  44  46
ATOM     46  C   UNL     1      -6.297   9.783  -1.614  1.00  0.00     0.124 C 
BRANCH  46  47
ATOM     47  C   UNL     1      -6.199   8.260  -1.450  1.00  0.00     0.096 C 
BRANCH  47  48
ATOM     48  S   UNL     1      -7.421   7.660  -0.225  1.00  0.00    -0.124 SA
BRANCH  48  49
ATOM     49  C   UNL     1      -8.332   6.476  -1.200  1.00  0.00     0.007 A 
ATOM     50  C   UNL     1      -7.866   6.182  -2.488  1.00  0.00     0.015 A 
ATOM     51  C   UNL     1      -9.505   5.863  -0.745  1.00  0.00     0.015 A 
ATOM     52  C   UNL     1      -8.550   5.277  -3.302  1.00  0.00     0.001 A 
ATOM     53  C   UNL     1     -10.188   4.955  -1.558  1.00  0.00     0.001 A 
ATOM     54  C   UNL     1      -9.710   4.660  -2.834  1.00  0.00     0.000 A 
ENDBRANCH  48  49
ENDBRANCH  47  48
ENDBRANCH  46  47
ENDBRANCH  44  46
ENDBRANCH  40  44
ENDBRANCH  32  35
ENDBRANCH   3  32
TORSDOF 14
ENDMDL
MODEL 2
REMARK VINA RESULT:      -6.8      1.691      2.206
REMARK SMILES CC(=O)N[C@@H](Cc1c[nH]c2ccccc12)C(=O)Nc1ccc(C(=O)NS(=O)(=O)c2ccc(NCCSc3ccccc3)c([N+](=O)[O-])c2)cc1
REMARK SMILES IDX 23 1 24 2 25 3 22 5 19 6 20 7 49 8 21 9 48 10 18 11 16 12
REMARK SMILES IDX 17 13 5 15 4 16 2 17 3 18 1 19 6 21 7 22 8 23 15 24 9 25
REMARK SMILES IDX 14 26 10 27 13 28 11 29 12 30 26 32 27 33 28 34 29 35 30 36
REMARK SMILES IDX 47 37 31 38 43 39 32 40 44 41 45 42 46 43 33 44 34 46 35 47
REMARK SMILES IDX 36 48 37 49 38 50 42 51 39 52 41 53 40 54
REMARK H PARENT 25 4 18 14 4 20 9 31 33 45
ROOT
ATOM      1  C   UNL     1      -7.080   3.781  -7.170  1.00  0.00     0.264 C 
ATOM      2  O   UNL     1      -6.932   3.777  -8.382  1.00  0.00    -0.268 OA
ATOM      3  N   UNL     1      -7.068   4.945  -6.386  1.00  0.00    -0.245 N 
ATOM      4  H   UNL     1      -7.041   4.889  -5.376  1.00  0.00     0.183 HD
ENDROOT
BRANCH   1   5
ATOM      5  C   UNL     1      -7.295   2.510  -6.427  1.00  0.00     0.040 A 
ATOM      6  C   UNL     1      -7.710   0.160  -4.926  1.00  0.00     0.041 A 
ATOM      7  C   UNL     1      -7.633   0.108  -6.321  1.00  0.00     0.027 A 
ATOM      8  C   UNL     1      -7.579   1.400  -4.288  1.00  0.00     0.027 A 
ATOM      9  C   UNL     1      -7.429   1.275  -7.071  1.00  0.00     0.016 A 
ATOM     10  C   UNL     1      -7.366   2.567  -5.032  1.00  0.00     0.016 A 
BRANCH   6  11
ATOM     11  N   UNL     1      -7.899  -0.968  -4.103  1.00  0.00    -0.324 N 
ATOM     12  C   UNL     1      -7.054  -2.058  -3.946  1.00  0.00     0.247 C 
ATOM     13  O   UNL     1      -5.969  -2.220  -4.503  1.00  0.00    -0.272 OA
ATOM     14  H   UNL     1      -8.774  -0.998  -3.593  1.00  0.00     0.170 HD
BRANCH  12  15
ATOM     15  C   UNL     1      -7.562  -3.061  -2.889  1.00  0.00     0.176 C 
BRANCH  15  16
ATOM     16  N   UNL     1      -6.614  -4.172  -2.814  1.00  0.00    -0.344 N 
ATOM     17  C   UNL     1      -7.059  -5.470  -2.918  1.00  0.00     0.217 C 
ATOM     18  O   UNL     1      -8.245  -5.777  -2.959  1.00  0.00    -0.275 OA
ATOM     19  C   UNL     1      -5.955  -6.491  -2.942  1.00  0.00     0.114 C 
ATOM     20  H   UNL     1      -5.670  -3.982  -3.126  1.00  0.00     0.164 HD
ENDBRANCH  15  16
BRANCH  15  21
ATOM     21  C   UNL     1      -7.699  -2.316  -1.553  1.00  0.00     0.072 C 
BRANCH  21  22
ATOM     22  C   UNL     1      -8.959  -2.659  -0.817  1.00  0.00    -0.020 A 
ATOM     23  C   UNL     1      -9.105  -3.639   0.147  1.00  0.00     0.087 A 
ATOM     24  C   UNL     1     -10.240  -2.035  -0.972  1.00  0.00     0.003 A 
ATOM     25  N   UNL     1     -10.401  -3.617   0.590  1.00  0.00    -0.361 N 
ATOM     26  C   UNL     1     -10.734  -0.996  -1.788  1.00  0.00     0.010 A 
ATOM     27  C   UNL     1     -11.116  -2.651  -0.079  1.00  0.00     0.046 A 
ATOM     28  C   UNL     1     -12.075  -0.614  -1.684  1.00  0.00     0.001 A 
ATOM     29  C   UNL     1     -12.459  -2.280   0.042  1.00  0.00     0.026 A 
ATOM     30  C   UNL     1     -12.923  -1.248  -0.779  1.00  0.00     0.002 A 
ATOM     31  H   UNL     1     -10.785  -4.221   1.304  1.00  0.00     0.166 HD
ENDBRANCH  21  22
ENDBRANCH  15  21
ENDBRANCH  12  15
ENDBRANCH   6  11
ENDBRANCH   1   5
BRANCH   3  32
ATOM     32  S   UNL     1      -6.761   6.446  -7.049  1.00  0.00     0.264 S 
ATOM     33  O   UNL     1      -5.388   6.503  -7.498  1.00  0.00    -0.201 OA
ATOM     34  O   UNL     1      -7.878   6.829  -7.884  1.00  0.00    -0.201 OA
BRANCH  32  35
ATOM     35  C   UNL     1      -6.839   7.468  -5.590  1.00  0.00     0.094 A 
ATOM     36  C   UNL     1      -5.773   7.499  -4.697  1.00  0.00     0.025 A 
ATOM     37  C   UNL     1      -7.990   8.213  -5.339  1.00  0.00     0.110 A 
ATOM     38  C   UNL     1      -5.858   8.283  -3.538  1.00  0.00     0.034 A 
ATOM     39  C   UNL     1      -8.055   9.000  -4.175  1.00  0.00     0.293 A 
ATOM     40  C   UNL     1      -7.008   9.031  -3.222  1.00  0.00     0.113 A 
BRANCH  39  41
ATOM     41  N   UNL     1      -9.267   9.802  -3.989  1.00  0.00     0.065 N 
ATOM     42  O   UNL     1     -10.307   9.191  -3.700  1.00  0.00    -0.258 OA
ATOM     43  O   UNL     1      -9.183  11.030  -4.124  1.00  0.00    -0.258 OA
ENDBRANCH  39  41
BRANCH  40  44
ATOM     44  N   UNL     1      -7.034   9.880  -2.103  1.00  0.00    -0.379 N 
ATOM     45  H   UNL     1      -7.845  10.516  -2.135  1.00  0.00     0.160 HD
BRANCH  44  46
ATOM     46  C   UNL     1      -6.890   9.353  -0.737  1.00  0.00     0.124 C 
BRANCH  46  47
ATOM     47  C   UNL     1      -7.452   7.933  -0.589  1.00  0.00     0.096 C 
BRANCH  47  48
ATOM     48  S   UNL     1      -9.277   7.969  -0.449  1.00  0.00    -0.124 SA
BRANCH  48  49
ATOM     49  C   UNL     1      -9.484   8.122   1.316  1.00  0.00     0.007 A 
ATOM     50  C   UNL     1      -9.265   9.375   1.901  1.00  0.00     0.015 A 
ATOM     51  C   UNL     1      -9.816   7.038   2.136  1.00  0.00     0.015 A 
ATOM     52  C   UNL     1      -9.395   9.548   3.280  1.00  0.00     0.001 A 
ATOM     53  C   UNL     1      -9.950   7.211   3.516  1.00  0.00     0.001 A 
ATOM     54  C   UNL     1      -9.741   8.466   4.088  1.00  0.00     0.000 A 
ENDBRANCH  48  49
ENDBRANCH  47  48
ENDBRANCH  46  47
ENDBRANCH  44  46
ENDBRANCH  40  44
ENDBRANCH  32  35
ENDBRANCH   3  32
TORSDOF 14
ENDMDL
MODEL 3
REMARK VINA RESULT:      -6.7      2.715      4.285
REMARK SMILES CC(=O)N[C@@H](Cc1c[nH]c2ccccc12)C(=O)Nc1ccc(C(=O)NS(=O)(=O)c2ccc(NCCSc3ccccc3)c([N+](=O)[O-])c2)cc1
REMARK SMILES IDX 23 1 24 2 25 3 22 5 19 6 20 7 49 8 21 9 48 10 18 11 16 12
REMARK SMILES IDX 17 13 5 15 4 16 2 17 3 18 1 19 6 21 7 22 8 23 15 24 9 25
REMARK SMILES IDX 14 26 10 27 13 28 11 29 12 30 26 32 27 33 28 34 29 35 30 36
REMARK SMILES IDX 47 37 31 38 43 39 32 40 44 41 45 42 46 43 33 44 34 46 35 47
REMARK SMILES IDX 36 48 37 49 38 50 42 51 39 52 41 53 40 54
REMARK H PARENT 25 4 18 14 4 20 9 31 33 45
ROOT
ATOM      1  C   UNL     1      -7.057   3.327  -6.341  1.00  0.00     0.264 C 
ATOM      2  O   UNL     1      -6.635   3.171  -7.476  1.00  0.00    -0.268 OA
ATOM      3  N   UNL     1      -7.042   4.556  -5.664  1.00  0.00    -0.245 N 
ATOM      4  H   UNL     1      -7.259   4.606  -4.676  1.00  0.00     0.183 HD
ENDROOT
BRANCH   1   5
ATOM      5  C   UNL     1      -7.637   2.185  -5.583  1.00  0.00     0.040 A 
ATOM      6  C   UNL     1      -8.831   0.038  -4.201  1.00  0.00     0.041 A 
ATOM      7  C   UNL     1      -7.474   0.325  -4.030  1.00  0.00     0.027 A 
ATOM      8  C   UNL     1      -9.587   0.835  -5.071  1.00  0.00     0.027 A 
ATOM      9  C   UNL     1      -6.876   1.391  -4.718  1.00  0.00     0.016 A 
ATOM     10  C   UNL     1      -8.997   1.905  -5.753  1.00  0.00     0.016 A 
BRANCH   6  11
ATOM     11  N   UNL     1      -9.507  -1.006  -3.537  1.00  0.00    -0.324 N 
ATOM     12  C   UNL     1     -10.445  -0.899  -2.519  1.00  0.00     0.247 C 
ATOM     13  O   UNL     1     -10.860   0.147  -2.022  1.00  0.00    -0.272 OA
ATOM     14  H   UNL     1      -9.249  -1.945  -3.817  1.00  0.00     0.170 HD
BRANCH  12  15
ATOM     15  C   UNL     1     -11.029  -2.264  -2.099  1.00  0.00     0.176 C 
BRANCH  15  16
ATOM     16  N   UNL     1     -12.094  -2.031  -1.124  1.00  0.00    -0.344 N 
ATOM     17  C   UNL     1     -11.973  -2.511   0.160  1.00  0.00     0.217 C 
ATOM     18  O   UNL     1     -11.058  -3.239   0.527  1.00  0.00    -0.275 OA
ATOM     19  C   UNL     1     -13.090  -2.088   1.075  1.00  0.00     0.114 C 
ATOM     20  H   UNL     1     -12.649  -1.195  -1.254  1.00  0.00     0.164 HD
ENDBRANCH  15  16
BRANCH  15  21
ATOM     21  C   UNL     1     -11.538  -2.973  -3.363  1.00  0.00     0.072 C 
BRANCH  21  22
ATOM     22  C   UNL     1     -10.531  -3.913  -3.954  1.00  0.00    -0.020 A 
ATOM     23  C   UNL     1     -10.512  -4.385  -5.252  1.00  0.00     0.087 A 
ATOM     24  C   UNL     1      -9.402  -4.491  -3.286  1.00  0.00     0.003 A 
ATOM     25  N   UNL     1      -9.419  -5.197  -5.400  1.00  0.00    -0.361 N 
ATOM     26  C   UNL     1      -8.888  -4.409  -1.975  1.00  0.00     0.010 A 
ATOM     27  C   UNL     1      -8.727  -5.283  -4.215  1.00  0.00     0.046 A 
ATOM     28  C   UNL     1      -7.729  -5.116  -1.642  1.00  0.00     0.001 A 
ATOM     29  C   UNL     1      -7.564  -5.994  -3.901  1.00  0.00     0.026 A 
ATOM     30  C   UNL     1      -7.077  -5.896  -2.595  1.00  0.00     0.002 A 
ATOM     31  H   UNL     1      -9.154  -5.670  -6.253  1.00  0.00     0.166 HD
ENDBRANCH  21  22
ENDBRANCH  15  21
ENDBRANCH  12  15
ENDBRANCH   6  11
ENDBRANCH   1   5
BRANCH   3  32
ATOM     32  S   UNL     1      -6.356   5.920  -6.339  1.00  0.00     0.264 S 
ATOM     33  O   UNL     1      -4.928   5.731  -6.459  1.00  0.00    -0.201 OA
ATOM     34  O   UNL     1      -7.185   6.371  -7.435  1.00  0.00    -0.201 OA
BRANCH  32  35
ATOM     35  C   UNL     1      -6.583   7.089  -5.011  1.00  0.00     0.094 A 
ATOM     36  C   UNL     1      -5.528   7.395  -4.157  1.00  0.00     0.025 A 
ATOM     37  C   UNL     1      -7.836   7.669  -4.820  1.00  0.00     0.110 A 
ATOM     38  C   UNL     1      -5.726   8.292  -3.099  1.00  0.00     0.034 A 
ATOM     39  C   UNL     1      -8.015   8.573  -3.757  1.00  0.00     0.293 A 
ATOM     40  C   UNL     1      -6.978   8.885  -2.843  1.00  0.00     0.113 A 
BRANCH  39  41
ATOM     41  N   UNL     1      -9.337   9.192  -3.635  1.00  0.00     0.065 N 
ATOM     42  O   UNL     1      -9.437  10.379  -3.983  1.00  0.00    -0.258 OA
ATOM     43  O   UNL     1     -10.270   8.501  -3.204  1.00  0.00    -0.258 OA
ENDBRANCH  39  41
BRANCH  40  44
ATOM     44  N   UNL     1      -7.129   9.849  -1.834  1.00  0.00    -0.379 N 
ATOM     45  H   UNL     1      -7.958  10.440  -2.002  1.00  0.00     0.160 HD
BRANCH  44  46
ATOM     46  C   UNL     1      -7.079   9.484  -0.410  1.00  0.00     0.124 C 
BRANCH  46  47
ATOM     47  C   UNL     1      -7.455   8.017  -0.163  1.00  0.00     0.096 C 
BRANCH  47  48
ATOM     48  S   UNL     1      -9.246   7.856   0.187  1.00  0.00    -0.124 SA
BRANCH  48  49
ATOM     49  C   UNL     1      -9.351   8.614   1.798  1.00  0.00     0.007 A 
ATOM     50  C   UNL     1      -8.455   8.190   2.787  1.00  0.00     0.015 A 
ATOM     51  C   UNL     1     -10.311   9.580   2.119  1.00  0.00     0.015 A 
ATOM     52  C   UNL     1      -8.504   8.736   4.072  1.00  0.00     0.001 A 
ATOM     53  C   UNL     1     -10.358  10.129   3.403  1.00  0.00     0.001 A 
ATOM     54  C   UNL     1      -9.454   9.709   4.378  1.00  0.00     0.000 A 
ENDBRANCH  48  49
ENDBRANCH  47  48
ENDBRANCH  46  47
ENDBRANCH  44  46
ENDBRANCH  40  44
ENDBRANCH  32  35
ENDBRANCH   3  32
TORSDOF 14
ENDMDL
MODEL 4
REMARK VINA RESULT:      -6.6      2.000      3.648
REMARK SMILES CC(=O)N[C@@H](Cc1c[nH]c2ccccc12)C(=O)Nc1ccc(C(=O)NS(=O)(=O)c2ccc(NCCSc3ccccc3)c([N+](=O)[O-])c2)cc1
REMARK SMILES IDX 23 1 24 2 25 3 22 5 19 6 20 7 49 8 21 9 48 10 18 11 16 12
REMARK SMILES IDX 17 13 5 15 4 16 2 17 3 18 1 19 6 21 7 22 8 23 15 24 9 25
REMARK SMILES IDX 14 26 10 27 13 28 11 29 12 30 26 32 27 33 28 34 29 35 30 36
REMARK SMILES IDX 47 37 31 38 43 39 32 40 44 41 45 42 46 43 33 44 34 46 35 47
REMARK SMILES IDX 36 48 37 49 38 50 42 51 39 52 41 53 40 54
REMARK H PARENT 25 4 18 14 4 20 9 31 33 45
ROOT
ATOM      1  C   UNL     1      -8.115   4.362  -6.586  1.00  0.00     0.264 C 
ATOM      2  O   UNL     1      -8.612   4.833  -7.596  1.00  0.00    -0.268 OA
ATOM      3  N   UNL     1      -6.988   4.900  -5.946  1.00  0.00    -0.245 N 
ATOM      4  H   UNL     1      -6.522   4.392  -5.205  1.00  0.00     0.183 HD
ENDROOT
BRANCH   1   5
ATOM      5  C   UNL     1      -8.697   3.150  -5.948  1.00  0.00     0.040 A 
ATOM      6  C   UNL     1      -9.799   0.907  -4.644  1.00  0.00     0.041 A 
ATOM      7  C   UNL     1      -9.623   0.906  -6.030  1.00  0.00     0.027 A 
ATOM      8  C   UNL     1      -9.419   2.041  -3.915  1.00  0.00     0.027 A 
ATOM      9  C   UNL     1      -9.077   2.021  -6.683  1.00  0.00     0.016 A 
ATOM     10  C   UNL     1      -8.866   3.152  -4.560  1.00  0.00     0.016 A 
BRANCH   6  11
ATOM     11  N   UNL     1     -10.327  -0.177  -3.914  1.00  0.00    -0.324 N 
ATOM     12  C   UNL     1      -9.650  -1.041  -3.065  1.00  0.00     0.247 C 
ATOM     13  O   UNL     1      -8.451  -0.998  -2.792  1.00  0.00    -0.272 OA
ATOM     14  H   UNL     1     -11.312  -0.365  -4.057  1.00  0.00     0.170 HD
BRANCH  12  15
ATOM     15  C   UNL     1     -10.584  -2.059  -2.377  1.00  0.00     0.176 C 
BRANCH  15  16
ATOM     16  N   UNL     1     -11.601  -1.320  -1.630  1.00  0.00    -0.344 N 
ATOM     17  C   UNL     1     -11.471  -1.145  -0.271  1.00  0.00     0.217 C 
ATOM     18  O   UNL     1     -10.592  -1.676   0.398  1.00  0.00    -0.275 OA
ATOM     19  C   UNL     1     -12.531  -0.266   0.333  1.00  0.00     0.114 C 
ATOM     20  H   UNL     1     -12.107  -0.608  -2.140  1.00  0.00     0.164 HD
ENDBRANCH  15  16
BRANCH  15  21
ATOM     21  C   UNL     1     -11.192  -2.957  -3.464  1.00  0.00     0.072 C 
BRANCH  21  22
ATOM     22  C   UNL     1     -10.212  -3.942  -4.027  1.00  0.00    -0.020 A 
ATOM     23  C   UNL     1     -10.202  -4.444  -5.314  1.00  0.00     0.087 A 
ATOM     24  C   UNL     1      -9.107  -4.541  -3.338  1.00  0.00     0.003 A 
ATOM     25  N   UNL     1      -9.135  -5.294  -5.436  1.00  0.00    -0.361 N 
ATOM     26  C   UNL     1      -8.598  -4.445  -2.026  1.00  0.00     0.010 A 
ATOM     27  C   UNL     1      -8.453  -5.375  -4.245  1.00  0.00     0.046 A 
ATOM     28  C   UNL     1      -7.464  -5.181  -1.670  1.00  0.00     0.001 A 
ATOM     29  C   UNL     1      -7.315  -6.116  -3.907  1.00  0.00     0.026 A 
ATOM     30  C   UNL     1      -6.832  -6.004  -2.600  1.00  0.00     0.002 A 
ATOM     31  H   UNL     1      -8.880  -5.795  -6.276  1.00  0.00     0.166 HD
ENDBRANCH  21  22
ENDBRANCH  15  21
ENDBRANCH  12  15
ENDBRANCH   6  11
ENDBRANCH   1   5
BRANCH   3  32
ATOM     32  S   UNL     1      -6.167   6.211  -6.572  1.00  0.00     0.264 S 
ATOM     33  O   UNL     1      -4.752   5.918  -6.614  1.00  0.00    -0.201 OA
ATOM     34  O   UNL     1      -6.897   6.726  -7.709  1.00  0.00    -0.201 OA
BRANCH  32  35
ATOM     35  C   UNL     1      -6.381   7.390  -5.251  1.00  0.00     0.094 A 
ATOM     36  C   UNL     1      -5.431   7.491  -4.240  1.00  0.00     0.025 A 
ATOM     37  C   UNL     1      -7.524   8.187  -5.227  1.00  0.00     0.110 A 
ATOM     38  C   UNL     1      -5.625   8.401  -3.191  1.00  0.00     0.034 A 
ATOM     39  C   UNL     1      -7.699   9.099  -4.170  1.00  0.00     0.293 A 
ATOM     40  C   UNL     1      -6.774   9.208  -3.102  1.00  0.00     0.113 A 
BRANCH  39  41
ATOM     41  N   UNL     1      -8.892   9.948  -4.224  1.00  0.00     0.065 N 
ATOM     42  O   UNL     1      -9.981   9.377  -4.386  1.00  0.00    -0.258 OA
ATOM     43  O   UNL     1      -8.746  11.172  -4.098  1.00  0.00    -0.258 OA
ENDBRANCH  39  41
BRANCH  40  44
ATOM     44  N   UNL     1      -6.903  10.176  -2.092  1.00  0.00    -0.379 N 
ATOM     45  H   UNL     1      -7.868  10.535  -2.038  1.00  0.00     0.160 HD
BRANCH  44  46
ATOM     46  C   UNL     1      -6.402   9.934  -0.730  1.00  0.00     0.124 C 
BRANCH  46  47
ATOM     47  C   UNL     1      -7.471   9.335   0.195  1.00  0.00     0.096 C 
BRANCH  47  48
ATOM     48  S   UNL     1      -7.305   7.513   0.282  1.00  0.00    -0.124 SA
BRANCH  48  49
ATOM     49  C   UNL     1      -8.439   7.004  -0.998  1.00  0.00     0.007 A 
ATOM     50  C   UNL     1      -9.725   7.559  -1.001  1.00  0.00     0.015 A 
ATOM     51  C   UNL     1      -8.107   6.051  -1.967  1.00  0.00     0.015 A 
ATOM     52  C   UNL     1     -10.658   7.182  -1.969  1.00  0.00     0.001 A 
ATOM     53  C   UNL     1      -9.040   5.677  -2.938  1.00  0.00     0.001 A 
ATOM     54  C   UNL     1     -10.314   6.243  -2.939  1.00  0.00     0.000 A 
ENDBRANCH  48  49
ENDBRANCH  47  48
ENDBRANCH  46  47
ENDBRANCH  44  46
ENDBRANCH  40  44
ENDBRANCH  32  35
ENDBRANCH   3  32
TORSDOF 14
ENDMDL
MODEL 5
REMARK VINA RESULT:      -6.2     17.835     22.774
REMARK SMILES CC(=O)N[C@@H](Cc1c[nH]c2ccccc12)C(=O)Nc1ccc(C(=O)NS(=O)(=O)c2ccc(NCCSc3ccccc3)c([N+](=O)[O-])c2)cc1
REMARK SMILES IDX 23 1 24 2 25 3 22 5 19 6 20 7 49 8 21 9 48 10 18 11 16 12
REMARK SMILES IDX 17 13 5 15 4 16 2 17 3 18 1 19 6 21 7 22 8 23 15 24 9 25
REMARK SMILES IDX 14 26 10 27 13 28 11 29 12 30 26 32 27 33 28 34 29 35 30 36
REMARK SMILES IDX 47 37 31 38 43 39 32 40 44 41 45 42 46 43 33 44 34 46 35 47
REMARK SMILES IDX 36 48 37 49 38 50 42 51 39 52 41 53 40 54
REMARK H PARENT 25 4 18 14 4 20 9 31 33 45
ROOT
ATOM      1  C   UNL     1      -6.098 -18.255 -11.731  1.00  0.00     0.264 C 
ATOM      2  O   UNL     1      -6.250 -18.117 -12.935  1.00  0.00    -0.268 OA
ATOM      3  N   UNL     1      -5.057 -18.999 -11.155  1.00  0.00    -0.245 N 
ATOM      4  H   UNL     1      -5.058 -19.213 -10.166  1.00  0.00     0.183 HD
ENDROOT
BRANCH   1   5
ATOM      5  C   UNL     1      -7.039 -17.619 -10.770  1.00  0.00     0.040 A 
ATOM      6  C   UNL     1      -8.788 -16.486  -8.872  1.00  0.00     0.041 A 
ATOM      7  C   UNL     1      -8.637 -15.905 -10.134  1.00  0.00     0.027 A 
ATOM      8  C   UNL     1      -8.055 -17.640  -8.567  1.00  0.00     0.027 A 
ATOM      9  C   UNL     1      -7.766 -16.464 -11.080  1.00  0.00     0.016 A 
ATOM     10  C   UNL     1      -7.191 -18.207  -9.510  1.00  0.00     0.016 A 
BRANCH   6  11
ATOM     11  N   UNL     1      -9.652 -15.992  -7.873  1.00  0.00    -0.324 N 
ATOM     12  C   UNL     1      -9.307 -15.366  -6.684  1.00  0.00     0.247 C 
ATOM     13  O   UNL     1      -8.164 -15.121  -6.298  1.00  0.00    -0.272 OA
ATOM     14  H   UNL     1     -10.641 -16.146  -8.032  1.00  0.00     0.170 HD
BRANCH  12  15
ATOM     15  C   UNL     1     -10.534 -14.888  -5.881  1.00  0.00     0.176 C 
BRANCH  15  16
ATOM     16  N   UNL     1     -11.366 -14.064  -6.756  1.00  0.00    -0.344 N 
ATOM     17  C   UNL     1     -12.073 -13.001  -6.240  1.00  0.00     0.217 C 
ATOM     18  O   UNL     1     -12.145 -12.755  -5.042  1.00  0.00    -0.275 OA
ATOM     19  C   UNL     1     -12.784 -12.180  -7.281  1.00  0.00     0.114 C 
ATOM     20  H   UNL     1     -11.077 -13.999  -7.723  1.00  0.00     0.164 HD
ENDBRANCH  15  16
BRANCH  15  21
ATOM     21  C   UNL     1     -11.278 -16.128  -5.364  1.00  0.00     0.072 C 
BRANCH  21  22
ATOM     22  C   UNL     1     -11.353 -16.187  -3.868  1.00  0.00    -0.020 A 
ATOM     23  C   UNL     1     -12.408 -15.761  -3.083  1.00  0.00     0.087 A 
ATOM     24  C   UNL     1     -10.352 -16.696  -2.978  1.00  0.00     0.003 A 
ATOM     25  N   UNL     1     -12.096 -16.010  -1.773  1.00  0.00    -0.361 N 
ATOM     26  C   UNL     1      -9.069 -17.255  -3.159  1.00  0.00     0.010 A 
ATOM     27  C   UNL     1     -10.847 -16.576  -1.680  1.00  0.00     0.046 A 
ATOM     28  C   UNL     1      -8.334 -17.669  -2.044  1.00  0.00     0.001 A 
ATOM     29  C   UNL     1     -10.127 -16.988  -0.553  1.00  0.00     0.026 A 
ATOM     30  C   UNL     1      -8.858 -17.538  -0.760  1.00  0.00     0.002 A 
ATOM     31  H   UNL     1     -12.694 -15.808  -0.982  1.00  0.00     0.166 HD
ENDBRANCH  21  22
ENDBRANCH  15  21
ENDBRANCH  12  15
ENDBRANCH   6  11
ENDBRANCH   1   5
BRANCH   3  32
ATOM     32  S   UNL     1      -3.960 -19.841 -12.091  1.00  0.00     0.264 S 
ATOM     33  O   UNL     1      -3.466 -20.979 -11.347  1.00  0.00    -0.201 OA
ATOM     34  O   UNL     1      -4.472 -19.946 -13.439  1.00  0.00    -0.201 OA
BRANCH  32  35
ATOM     35  C   UNL     1      -2.614 -18.673 -12.145  1.00  0.00     0.094 A 
ATOM     36  C   UNL     1      -1.604 -18.721 -11.190  1.00  0.00     0.025 A 
ATOM     37  C   UNL     1      -2.600 -17.693 -13.136  1.00  0.00     0.110 A 
ATOM     38  C   UNL     1      -0.566 -17.779 -11.225  1.00  0.00     0.034 A 
ATOM     39  C   UNL     1      -1.548 -16.760 -13.161  1.00  0.00     0.293 A 
ATOM     40  C   UNL     1      -0.520 -16.751 -12.186  1.00  0.00     0.113 A 
BRANCH  39  41
ATOM     41  N   UNL     1      -1.557 -15.787 -14.255  1.00  0.00     0.065 N 
ATOM     42  O   UNL     1      -0.533 -15.713 -14.951  1.00  0.00    -0.258 OA
ATOM     43  O   UNL     1      -2.577 -15.105 -14.425  1.00  0.00    -0.258 OA
ENDBRANCH  39  41
BRANCH  40  44
ATOM     44  N   UNL     1       0.576 -15.876 -12.257  1.00  0.00    -0.379 N 
ATOM     45  H   UNL     1       0.431 -15.045 -11.664  1.00  0.00     0.160 HD
BRANCH  44  46
ATOM     46  C   UNL     1       1.956 -16.357 -12.081  1.00  0.00     0.124 C 
BRANCH  46  47
ATOM     47  C   UNL     1       2.594 -16.813 -13.399  1.00  0.00     0.096 C 
BRANCH  47  48
ATOM     48  S   UNL     1       3.366 -18.464 -13.209  1.00  0.00    -0.124 SA
BRANCH  48  49
ATOM     49  C   UNL     1       1.945 -19.529 -13.384  1.00  0.00     0.007 A 
ATOM     50  C   UNL     1       1.040 -19.259 -14.418  1.00  0.00     0.015 A 
ATOM     51  C   UNL     1       1.683 -20.590 -12.511  1.00  0.00     0.015 A 
ATOM     52  C   UNL     1      -0.099 -20.049 -14.589  1.00  0.00     0.001 A 
ATOM     53  C   UNL     1       0.546 -21.383 -12.685  1.00  0.00     0.001 A 
ATOM     54  C   UNL     1      -0.344 -21.114 -13.724  1.00  0.00     0.000 A 
ENDBRANCH  48  49
ENDBRANCH  47  48
ENDBRANCH  46  47
ENDBRANCH  44  46
ENDBRANCH  40  44
ENDBRANCH  32  35
ENDBRANCH   3  32
TORSDOF 14
ENDMDL
MODEL 6
REMARK VINA RESULT:      -5.9      7.464     10.709
REMARK SMILES CC(=O)N[C@@H](Cc1c[nH]c2ccccc12)C(=O)Nc1ccc(C(=O)NS(=O)(=O)c2ccc(NCCSc3ccccc3)c([N+](=O)[O-])c2)cc1
REMARK SMILES IDX 23 1 24 2 25 3 22 5 19 6 20 7 49 8 21 9 48 10 18 11 16 12
REMARK SMILES IDX 17 13 5 15 4 16 2 17 3 18 1 19 6 21 7 22 8 23 15 24 9 25
REMARK SMILES IDX 14 26 10 27 13 28 11 29 12 30 26 32 27 33 28 34 29 35 30 36
REMARK SMILES IDX 47 37 31 38 43 39 32 40 44 41 45 42 46 43 33 44 34 46 35 47
REMARK SMILES IDX 36 48 37 49 38 50 42 51 39 52 41 53 40 54
REMARK H PARENT 25 4 18 14 4 20 9 31 33 45
ROOT
ATOM      1  C   UNL     1      -8.222   8.317  -2.776  1.00  0.00     0.264 C 
ATOM      2  O   UNL     1      -7.095   8.350  -3.244  1.00  0.00    -0.268 OA
ATOM      3  N   UNL     1      -8.499   8.363  -1.401  1.00  0.00    -0.245 N 
ATOM      4  H   UNL     1      -9.432   8.179  -1.055  1.00  0.00     0.183 HD
ENDROOT
BRANCH   1   5
ATOM      5  C   UNL     1      -9.411   8.229  -3.667  1.00  0.00     0.040 A 
ATOM      6  C   UNL     1     -11.712   7.999  -5.278  1.00  0.00     0.041 A 
ATOM      7  C   UNL     1     -10.646   8.810  -5.675  1.00  0.00     0.027 A 
ATOM      8  C   UNL     1     -11.618   7.304  -4.066  1.00  0.00     0.027 A 
ATOM      9  C   UNL     1      -9.500   8.929  -4.876  1.00  0.00     0.016 A 
ATOM     10  C   UNL     1     -10.473   7.411  -3.268  1.00  0.00     0.016 A 
BRANCH   6  11
ATOM     11  N   UNL     1     -12.890   7.818  -6.031  1.00  0.00    -0.324 N 
ATOM     12  C   UNL     1     -13.182   6.791  -6.919  1.00  0.00     0.247 C 
ATOM     13  O   UNL     1     -12.451   5.841  -7.194  1.00  0.00    -0.272 OA
ATOM     14  H   UNL     1     -13.589   8.545  -5.935  1.00  0.00     0.170 HD
BRANCH  12  15
ATOM     15  C   UNL     1     -14.611   6.886  -7.494  1.00  0.00     0.176 C 
BRANCH  15  16
ATOM     16  N   UNL     1     -14.530   6.792  -8.950  1.00  0.00    -0.344 N 
ATOM     17  C   UNL     1     -14.513   7.934  -9.718  1.00  0.00     0.217 C 
ATOM     18  O   UNL     1     -14.679   9.059  -9.260  1.00  0.00    -0.275 OA
ATOM     19  C   UNL     1     -14.306   7.677 -11.186  1.00  0.00     0.114 C 
ATOM     20  H   UNL     1     -14.058   5.978  -9.324  1.00  0.00     0.164 HD
ENDBRANCH  15  16
BRANCH  15  21
ATOM     21  C   UNL     1     -15.447   5.754  -6.879  1.00  0.00     0.072 C 
BRANCH  21  22
ATOM     22  C   UNL     1     -16.904   5.850  -7.221  1.00  0.00    -0.020 A 
ATOM     23  C   UNL     1     -17.593   5.044  -8.107  1.00  0.00     0.087 A 
ATOM     24  C   UNL     1     -17.850   6.787  -6.691  1.00  0.00     0.003 A 
ATOM     25  N   UNL     1     -18.905   5.438  -8.117  1.00  0.00    -0.361 N 
ATOM     26  C   UNL     1     -17.767   7.851  -5.768  1.00  0.00     0.010 A 
ATOM     27  C   UNL     1     -19.088   6.502  -7.265  1.00  0.00     0.046 A 
ATOM     28  C   UNL     1     -18.915   8.586  -5.457  1.00  0.00     0.001 A 
ATOM     29  C   UNL     1     -20.248   7.224  -6.963  1.00  0.00     0.026 A 
ATOM     30  C   UNL     1     -20.138   8.274  -6.047  1.00  0.00     0.002 A 
ATOM     31  H   UNL     1     -19.639   5.014  -8.668  1.00  0.00     0.166 HD
ENDBRANCH  21  22
ENDBRANCH  15  21
ENDBRANCH  12  15
ENDBRANCH   6  11
ENDBRANCH   1   5
BRANCH   3  32
ATOM     32  S   UNL     1      -7.280   8.384  -0.261  1.00  0.00     0.264 S 
ATOM     33  O   UNL     1      -6.521   7.156  -0.344  1.00  0.00    -0.201 OA
ATOM     34  O   UNL     1      -6.661   9.692  -0.257  1.00  0.00    -0.201 OA
BRANCH  32  35
ATOM     35  C   UNL     1      -8.235   8.266   1.240  1.00  0.00     0.094 A 
ATOM     36  C   UNL     1      -7.897   9.034   2.349  1.00  0.00     0.025 A 
ATOM     37  C   UNL     1      -9.305   7.375   1.299  1.00  0.00     0.110 A 
ATOM     38  C   UNL     1      -8.637   8.911   3.533  1.00  0.00     0.034 A 
ATOM     39  C   UNL     1     -10.042   7.270   2.493  1.00  0.00     0.293 A 
ATOM     40  C   UNL     1      -9.709   8.006   3.656  1.00  0.00     0.113 A 
BRANCH  39  41
ATOM     41  N   UNL     1     -11.188   6.357   2.481  1.00  0.00     0.065 N 
ATOM     42  O   UNL     1     -11.856   6.307   1.438  1.00  0.00    -0.258 OA
ATOM     43  O   UNL     1     -11.416   5.690   3.500  1.00  0.00    -0.258 OA
ENDBRANCH  39  41
BRANCH  40  44
ATOM     44  N   UNL     1     -10.492   7.966   4.821  1.00  0.00    -0.379 N 
ATOM     45  H   UNL     1      -9.947   7.631   5.629  1.00  0.00     0.160 HD
BRANCH  44  46
ATOM     46  C   UNL     1     -11.309   9.118   5.237  1.00  0.00     0.124 C 
BRANCH  46  47
ATOM     47  C   UNL     1     -12.784   8.969   4.845  1.00  0.00     0.096 C 
BRANCH  47  48
ATOM     48  S   UNL     1     -13.048   9.480   3.106  1.00  0.00    -0.124 SA
BRANCH  48  49
ATOM     49  C   UNL     1     -12.820  11.245   3.229  1.00  0.00     0.007 A 
ATOM     50  C   UNL     1     -13.921  12.030   3.595  1.00  0.00     0.015 A 
ATOM     51  C   UNL     1     -11.604  11.873   2.940  1.00  0.00     0.015 A 
ATOM     52  C   UNL     1     -13.805  13.418   3.689  1.00  0.00     0.001 A 
ATOM     53  C   UNL     1     -11.486  13.262   3.038  1.00  0.00     0.001 A 
ATOM     54  C   UNL     1     -12.585  14.034   3.413  1.00  0.00     0.000 A 
ENDBRANCH  48  49
ENDBRANCH  47  48
ENDBRANCH  46  47
ENDBRANCH  44  46
ENDBRANCH  40  44
ENDBRANCH  32  35
ENDBRANCH   3  32
TORSDOF 14
ENDMDL
MODEL 7
REMARK VINA RESULT:      -5.8      4.463      6.016
REMARK SMILES CC(=O)N[C@@H](Cc1c[nH]c2ccccc12)C(=O)Nc1ccc(C(=O)NS(=O)(=O)c2ccc(NCCSc3ccccc3)c([N+](=O)[O-])c2)cc1
REMARK SMILES IDX 23 1 24 2 25 3 22 5 19 6 20 7 49 8 21 9 48 10 18 11 16 12
REMARK SMILES IDX 17 13 5 15 4 16 2 17 3 18 1 19 6 21 7 22 8 23 15 24 9 25
REMARK SMILES IDX 14 26 10 27 13 28 11 29 12 30 26 32 27 33 28 34 29 35 30 36
REMARK SMILES IDX 47 37 31 38 43 39 32 40 44 41 45 42 46 43 33 44 34 46 35 47
REMARK SMILES IDX 36 48 37 49 38 50 42 51 39 52 41 53 40 54
REMARK H PARENT 25 4 18 14 4 20 9 31 33 45
ROOT
ATOM      1  C   UNL     1      -8.882   6.099  -4.799  1.00  0.00     0.264 C 
ATOM      2  O   UNL     1      -9.332   6.855  -5.645  1.00  0.00    -0.268 OA
ATOM      3  N   UNL     1      -8.499   6.507  -3.512  1.00  0.00    -0.245 N 
ATOM      4  H   UNL     1      -7.992   5.882  -2.899  1.00  0.00     0.183 HD
ENDROOT
BRANCH   1   5
ATOM      5  C   UNL     1      -8.711   4.650  -5.088  1.00  0.00     0.040 A 
ATOM      6  C   UNL     1      -8.365   1.888  -5.530  1.00  0.00     0.041 A 
ATOM      7  C   UNL     1      -8.801   2.722  -6.563  1.00  0.00     0.027 A 
ATOM      8  C   UNL     1      -8.104   2.447  -4.273  1.00  0.00     0.027 A 
ATOM      9  C   UNL     1      -8.977   4.097  -6.346  1.00  0.00     0.016 A 
ATOM     10  C   UNL     1      -8.269   3.819  -4.054  1.00  0.00     0.016 A 
BRANCH   6  11
ATOM     11  N   UNL     1      -8.151   0.501  -5.672  1.00  0.00    -0.324 N 
ATOM     12  C   UNL     1      -8.956  -0.534  -5.216  1.00  0.00     0.247 C 
ATOM     13  O   UNL     1     -10.019  -0.413  -4.608  1.00  0.00    -0.272 OA
ATOM     14  H   UNL     1      -7.289   0.234  -6.133  1.00  0.00     0.170 HD
BRANCH  12  15
ATOM     15  C   UNL     1      -8.436  -1.925  -5.635  1.00  0.00     0.176 C 
BRANCH  15  16
ATOM     16  N   UNL     1      -8.042  -1.866  -7.042  1.00  0.00    -0.344 N 
ATOM     17  C   UNL     1      -8.930  -2.236  -8.025  1.00  0.00     0.217 C 
ATOM     18  O   UNL     1     -10.026  -2.734  -7.795  1.00  0.00    -0.275 OA
ATOM     19  C   UNL     1      -8.421  -2.008  -9.423  1.00  0.00     0.114 C 
ATOM     20  H   UNL     1      -7.345  -1.174  -7.287  1.00  0.00     0.164 HD
ENDBRANCH  15  16
BRANCH  15  21
ATOM     21  C   UNL     1      -7.264  -2.292  -4.713  1.00  0.00     0.072 C 
BRANCH  21  22
ATOM     22  C   UNL     1      -7.610  -3.364  -3.724  1.00  0.00    -0.020 A 
ATOM     23  C   UNL     1      -7.413  -4.723  -3.884  1.00  0.00     0.087 A 
ATOM     24  C   UNL     1      -8.201  -3.180  -2.432  1.00  0.00     0.003 A 
ATOM     25  N   UNL     1      -7.838  -5.356  -2.746  1.00  0.00    -0.361 N 
ATOM     26  C   UNL     1      -8.638  -2.054  -1.702  1.00  0.00     0.010 A 
ATOM     27  C   UNL     1      -8.327  -4.439  -1.846  1.00  0.00     0.046 A 
ATOM     28  C   UNL     1      -9.180  -2.226  -0.425  1.00  0.00     0.001 A 
ATOM     29  C   UNL     1      -8.863  -4.630  -0.568  1.00  0.00     0.026 A 
ATOM     30  C   UNL     1      -9.288  -3.498   0.133  1.00  0.00     0.002 A 
ATOM     31  H   UNL     1      -7.801  -6.354  -2.584  1.00  0.00     0.166 HD
ENDBRANCH  21  22
ENDBRANCH  15  21
ENDBRANCH  12  15
ENDBRANCH   6  11
ENDBRANCH   1   5
BRANCH   3  32
ATOM     32  S   UNL     1      -8.552   8.111  -3.049  1.00  0.00     0.264 S 
ATOM     33  O   UNL     1      -7.272   8.730  -3.308  1.00  0.00    -0.201 OA
ATOM     34  O   UNL     1      -9.806   8.686  -3.483  1.00  0.00    -0.201 OA
BRANCH  32  35
ATOM     35  C   UNL     1      -8.658   7.934  -1.277  1.00  0.00     0.094 A 
ATOM     36  C   UNL     1      -7.641   8.419  -0.461  1.00  0.00     0.025 A 
ATOM     37  C   UNL     1      -9.755   7.279  -0.721  1.00  0.00     0.110 A 
ATOM     38  C   UNL     1      -7.721   8.249   0.928  1.00  0.00     0.034 A 
ATOM     39  C   UNL     1      -9.823   7.123   0.675  1.00  0.00     0.293 A 
ATOM     40  C   UNL     1      -8.792   7.569   1.539  1.00  0.00     0.113 A 
BRANCH  39  41
ATOM     41  N   UNL     1     -11.023   6.473   1.208  1.00  0.00     0.065 N 
ATOM     42  O   UNL     1     -10.871   5.369   1.752  1.00  0.00    -0.258 OA
ATOM     43  O   UNL     1     -12.108   7.061   1.092  1.00  0.00    -0.258 OA
ENDBRANCH  39  41
BRANCH  40  44
ATOM     44  N   UNL     1      -8.896   7.490   2.937  1.00  0.00    -0.379 N 
ATOM     45  H   UNL     1      -8.126   6.935   3.339  1.00  0.00     0.160 HD
BRANCH  44  46
ATOM     46  C   UNL     1      -9.103   8.693   3.760  1.00  0.00     0.124 C 
BRANCH  46  47
ATOM     47  C   UNL     1     -10.575   9.120   3.822  1.00  0.00     0.096 C 
BRANCH  47  48
ATOM     48  S   UNL     1     -11.192   9.074   5.546  1.00  0.00    -0.124 SA
BRANCH  48  49
ATOM     49  C   UNL     1     -10.463  10.560   6.211  1.00  0.00     0.007 A 
ATOM     50  C   UNL     1     -10.155  10.591   7.577  1.00  0.00     0.015 A 
ATOM     51  C   UNL     1     -10.226  11.699   5.435  1.00  0.00     0.015 A 
ATOM     52  C   UNL     1      -9.600  11.734   8.154  1.00  0.00     0.001 A 
ATOM     53  C   UNL     1      -9.667  12.843   6.011  1.00  0.00     0.001 A 
ATOM     54  C   UNL     1      -9.353  12.860   7.370  1.00  0.00     0.000 A 
ENDBRANCH  48  49
ENDBRANCH  47  48
ENDBRANCH  46  47
ENDBRANCH  44  46
ENDBRANCH  40  44
ENDBRANCH  32  35
ENDBRANCH   3  32
TORSDOF 14
ENDMDL
MODEL 8
REMARK VINA RESULT:      -5.7     17.875     22.419
REMARK SMILES CC(=O)N[C@@H](Cc1c[nH]c2ccccc12)C(=O)Nc1ccc(C(=O)NS(=O)(=O)c2ccc(NCCSc3ccccc3)c([N+](=O)[O-])c2)cc1
REMARK SMILES IDX 23 1 24 2 25 3 22 5 19 6 20 7 49 8 21 9 48 10 18 11 16 12
REMARK SMILES IDX 17 13 5 15 4 16 2 17 3 18 1 19 6 21 7 22 8 23 15 24 9 25
REMARK SMILES IDX 14 26 10 27 13 28 11 29 12 30 26 32 27 33 28 34 29 35 30 36
REMARK SMILES IDX 47 37 31 38 43 39 32 40 44 41 45 42 46 43 33 44 34 46 35 47
REMARK SMILES IDX 36 48 37 49 38 50 42 51 39 52 41 53 40 54
REMARK H PARENT 25 4 18 14 4 20 9 31 33 45
ROOT
ATOM      1  C   UNL     1      -6.033 -18.287 -11.912  1.00  0.00     0.264 C 
ATOM      2  O   UNL     1      -6.155 -18.123 -13.115  1.00  0.00    -0.268 OA
ATOM      3  N   UNL     1      -5.030 -19.075 -11.328  1.00  0.00    -0.245 N 
ATOM      4  H   UNL     1      -5.059 -19.305 -10.343  1.00  0.00     0.183 HD
ENDROOT
BRANCH   1   5
ATOM      5  C   UNL     1      -6.971 -17.635 -10.959  1.00  0.00     0.040 A 
ATOM      6  C   UNL     1      -8.727 -16.479  -9.080  1.00  0.00     0.041 A 
ATOM      7  C   UNL     1      -8.453 -15.831 -10.288  1.00  0.00     0.027 A 
ATOM      8  C   UNL     1      -8.113 -17.711  -8.819  1.00  0.00     0.027 A 
ATOM      9  C   UNL     1      -7.579 -16.402 -11.224  1.00  0.00     0.016 A 
ATOM     10  C   UNL     1      -7.247 -18.289  -9.754  1.00  0.00     0.016 A 
BRANCH   6  11
ATOM     11  N   UNL     1      -9.603 -15.978  -8.096  1.00  0.00    -0.324 N 
ATOM     12  C   UNL     1      -9.273 -15.421  -6.868  1.00  0.00     0.247 C 
ATOM     13  O   UNL     1      -8.136 -15.259  -6.427  1.00  0.00    -0.272 OA
ATOM     14  H   UNL     1     -10.591 -16.068  -8.301  1.00  0.00     0.170 HD
BRANCH  12  15
ATOM     15  C   UNL     1     -10.505 -14.907  -6.094  1.00  0.00     0.176 C 
BRANCH  15  16
ATOM     16  N   UNL     1     -11.326 -14.114  -7.008  1.00  0.00    -0.344 N 
ATOM     17  C   UNL     1     -12.015 -13.016  -6.544  1.00  0.00     0.217 C 
ATOM     18  O   UNL     1     -12.080 -12.710  -5.359  1.00  0.00    -0.275 OA
ATOM     19  C   UNL     1     -12.716 -12.237  -7.623  1.00  0.00     0.114 C 
ATOM     20  H   UNL     1     -11.038 -14.101  -7.978  1.00  0.00     0.164 HD
ENDBRANCH  15  16
BRANCH  15  21
ATOM     21  C   UNL     1     -11.258 -16.123  -5.536  1.00  0.00     0.072 C 
BRANCH  21  22
ATOM     22  C   UNL     1     -11.324 -16.135  -4.038  1.00  0.00    -0.020 A 
ATOM     23  C   UNL     1     -12.321 -15.582  -3.257  1.00  0.00     0.087 A 
ATOM     24  C   UNL     1     -10.373 -16.723  -3.142  1.00  0.00     0.003 A 
ATOM     25  N   UNL     1     -12.025 -15.829  -1.943  1.00  0.00    -0.361 N 
ATOM     26  C   UNL     1      -9.157 -17.417  -3.317  1.00  0.00     0.010 A 
ATOM     27  C   UNL     1     -10.839 -16.519  -1.844  1.00  0.00     0.046 A 
ATOM     28  C   UNL     1      -8.457 -17.876  -2.197  1.00  0.00     0.001 A 
ATOM     29  C   UNL     1     -10.155 -16.975  -0.712  1.00  0.00     0.026 A 
ATOM     30  C   UNL     1      -8.952 -17.659  -0.914  1.00  0.00     0.002 A 
ATOM     31  H   UNL     1     -12.590 -15.546  -1.153  1.00  0.00     0.166 HD
ENDBRANCH  21  22
ENDBRANCH  15  21
ENDBRANCH  12  15
ENDBRANCH   6  11
ENDBRANCH   1   5
BRANCH   3  32
ATOM     32  S   UNL     1      -3.943 -19.940 -12.256  1.00  0.00     0.264 S 
ATOM     33  O   UNL     1      -3.477 -21.086 -11.508  1.00  0.00    -0.201 OA
ATOM     34  O   UNL     1      -4.448 -20.034 -13.607  1.00  0.00    -0.201 OA
BRANCH  32  35
ATOM     35  C   UNL     1      -2.574 -18.798 -12.300  1.00  0.00     0.094 A 
ATOM     36  C   UNL     1      -1.542 -18.903 -11.373  1.00  0.00     0.025 A 
ATOM     37  C   UNL     1      -2.564 -17.782 -13.254  1.00  0.00     0.110 A 
ATOM     38  C   UNL     1      -0.486 -17.981 -11.399  1.00  0.00     0.034 A 
ATOM     39  C   UNL     1      -1.492 -16.870 -13.270  1.00  0.00     0.293 A 
ATOM     40  C   UNL     1      -0.441 -16.920 -12.322  1.00  0.00     0.113 A 
BRANCH  39  41
ATOM     41  N   UNL     1      -1.507 -15.856 -14.327  1.00  0.00     0.065 N 
ATOM     42  O   UNL     1      -0.543 -15.843 -15.108  1.00  0.00    -0.258 OA
ATOM     43  O   UNL     1      -2.473 -15.083 -14.384  1.00  0.00    -0.258 OA
ENDBRANCH  39  41
BRANCH  40  44
ATOM     44  N   UNL     1       0.672 -16.065 -12.388  1.00  0.00    -0.379 N 
ATOM     45  H   UNL     1       0.404 -15.086 -12.204  1.00  0.00     0.160 HD
BRANCH  44  46
ATOM     46  C   UNL     1       1.916 -16.367 -11.663  1.00  0.00     0.124 C 
BRANCH  46  47
ATOM     47  C   UNL     1       2.876 -17.243 -12.478  1.00  0.00     0.096 C 
BRANCH  47  48
ATOM     48  S   UNL     1       2.714 -16.892 -14.268  1.00  0.00    -0.124 SA
BRANCH  48  49
ATOM     49  C   UNL     1       3.857 -15.534 -14.456  1.00  0.00     0.007 A 
ATOM     50  C   UNL     1       5.038 -15.556 -13.704  1.00  0.00     0.015 A 
ATOM     51  C   UNL     1       3.602 -14.440 -15.291  1.00  0.00     0.015 A 
ATOM     52  C   UNL     1       5.960 -14.511 -13.798  1.00  0.00     0.001 A 
ATOM     53  C   UNL     1       4.526 -13.397 -15.388  1.00  0.00     0.001 A 
ATOM     54  C   UNL     1       5.704 -13.432 -14.644  1.00  0.00     0.000 A 
ENDBRANCH  48  49
ENDBRANCH  47  48
ENDBRANCH  46  47
ENDBRANCH  44  46
ENDBRANCH  40  44
ENDBRANCH  32  35
ENDBRANCH   3  32
TORSDOF 14
ENDMDL
MODEL 9
REMARK VINA RESULT:      -5.6      6.879     13.263
REMARK SMILES CC(=O)N[C@@H](Cc1c[nH]c2ccccc12)C(=O)Nc1ccc(C(=O)NS(=O)(=O)c2ccc(NCCSc3ccccc3)c([N+](=O)[O-])c2)cc1
REMARK SMILES IDX 23 1 24 2 25 3 22 5 19 6 20 7 49 8 21 9 48 10 18 11 16 12
REMARK SMILES IDX 17 13 5 15 4 16 2 17 3 18 1 19 6 21 7 22 8 23 15 24 9 25
REMARK SMILES IDX 14 26 10 27 13 28 11 29 12 30 26 32 27 33 28 34 29 35 30 36
REMARK SMILES IDX 47 37 31 38 43 39 32 40 44 41 45 42 46 43 33 44 34 46 35 47
REMARK SMILES IDX 36 48 37 49 38 50 42 51 39 52 41 53 40 54
REMARK H PARENT 25 4 18 14 4 20 9 31 33 45
ROOT
ATOM      1  C   UNL     1      -1.557   4.822  -6.137  1.00  0.00     0.264 C 
ATOM      2  O   UNL     1      -0.568   5.383  -5.692  1.00  0.00    -0.268 OA
ATOM      3  N   UNL     1      -1.592   3.465  -6.491  1.00  0.00    -0.245 N 
ATOM      4  H   UNL     1      -2.381   3.081  -6.995  1.00  0.00     0.183 HD
ENDROOT
BRANCH   1   5
ATOM      5  C   UNL     1      -2.829   5.568  -6.333  1.00  0.00     0.040 A 
ATOM      6  C   UNL     1      -5.213   7.045  -6.619  1.00  0.00     0.041 A 
ATOM      7  C   UNL     1      -4.873   6.059  -7.549  1.00  0.00     0.027 A 
ATOM      8  C   UNL     1      -4.349   7.286  -5.543  1.00  0.00     0.027 A 
ATOM      9  C   UNL     1      -3.687   5.324  -7.412  1.00  0.00     0.016 A 
ATOM     10  C   UNL     1      -3.169   6.550  -5.396  1.00  0.00     0.016 A 
BRANCH   6  11
ATOM     11  N   UNL     1      -6.392   7.816  -6.680  1.00  0.00    -0.324 N 
ATOM     12  C   UNL     1      -7.522   7.706  -5.882  1.00  0.00     0.247 C 
ATOM     13  O   UNL     1      -7.684   6.908  -4.960  1.00  0.00    -0.272 OA
ATOM     14  H   UNL     1      -6.426   8.508  -7.419  1.00  0.00     0.170 HD
BRANCH  12  15
ATOM     15  C   UNL     1      -8.582   8.784  -6.194  1.00  0.00     0.176 C 
BRANCH  15  16
ATOM     16  N   UNL     1      -9.744   8.550  -5.338  1.00  0.00    -0.344 N 
ATOM     17  C   UNL     1     -10.935   8.134  -5.887  1.00  0.00     0.217 C 
ATOM     18  O   UNL     1     -11.130   8.049  -7.094  1.00  0.00    -0.275 OA
ATOM     19  C   UNL     1     -11.998   7.823  -4.870  1.00  0.00     0.114 C 
ATOM     20  H   UNL     1      -9.553   8.271  -4.384  1.00  0.00     0.164 HD
ENDBRANCH  15  16
BRANCH  15  21
ATOM     21  C   UNL     1      -7.945  10.161  -5.954  1.00  0.00     0.072 C 
BRANCH  21  22
ATOM     22  C   UNL     1      -8.903  11.295  -6.162  1.00  0.00    -0.020 A 
ATOM     23  C   UNL     1      -9.263  12.246  -5.227  1.00  0.00     0.087 A 
ATOM     24  C   UNL     1      -9.617  11.604  -7.366  1.00  0.00     0.003 A 
ATOM     25  N   UNL     1     -10.139  13.119  -5.817  1.00  0.00    -0.361 N 
ATOM     26  C   UNL     1      -9.684  11.017  -8.647  1.00  0.00     0.010 A 
ATOM     27  C   UNL     1     -10.375  12.749  -7.120  1.00  0.00     0.046 A 
ATOM     28  C   UNL     1     -10.500  11.591  -9.627  1.00  0.00     0.001 A 
ATOM     29  C   UNL     1     -11.194  13.338  -8.089  1.00  0.00     0.026 A 
ATOM     30  C   UNL     1     -11.242  12.736  -9.350  1.00  0.00     0.002 A 
ATOM     31  H   UNL     1     -10.556  13.922  -5.366  1.00  0.00     0.166 HD
ENDBRANCH  21  22
ENDBRANCH  15  21
ENDBRANCH  12  15
ENDBRANCH   6  11
ENDBRANCH   1   5
BRANCH   3  32
ATOM     32  S   UNL     1      -0.231   2.501  -6.407  1.00  0.00     0.264 S 
ATOM     33  O   UNL     1       0.898   3.214  -6.962  1.00  0.00    -0.201 OA
ATOM     34  O   UNL     1      -0.192   1.851  -5.116  1.00  0.00    -0.201 OA
BRANCH  32  35
ATOM     35  C   UNL     1      -0.648   1.244  -7.601  1.00  0.00     0.094 A 
ATOM     36  C   UNL     1       0.065   1.142  -8.791  1.00  0.00     0.025 A 
ATOM     37  C   UNL     1      -1.714   0.385  -7.342  1.00  0.00     0.110 A 
ATOM     38  C   UNL     1      -0.291   0.169  -9.735  1.00  0.00     0.034 A 
ATOM     39  C   UNL     1      -2.053  -0.590  -8.297  1.00  0.00     0.293 A 
ATOM     40  C   UNL     1      -1.377  -0.705  -9.537  1.00  0.00     0.113 A 
BRANCH  39  41
ATOM     41  N   UNL     1      -3.148  -1.500  -7.950  1.00  0.00     0.065 N 
ATOM     42  O   UNL     1      -4.228  -0.982  -7.627  1.00  0.00    -0.258 OA
ATOM     43  O   UNL     1      -2.937  -2.719  -8.005  1.00  0.00    -0.258 OA
ENDBRANCH  39  41
BRANCH  40  44
ATOM     44  N   UNL     1      -1.658  -1.730 -10.455  1.00  0.00    -0.379 N 
ATOM     45  H   UNL     1      -2.267  -1.396 -11.216  1.00  0.00     0.160 HD
BRANCH  44  46
ATOM     46  C   UNL     1      -0.587  -2.562 -11.026  1.00  0.00     0.124 C 
BRANCH  46  47
ATOM     47  C   UNL     1      -0.576  -2.540 -12.560  1.00  0.00     0.096 C 
BRANCH  47  48
ATOM     48  S   UNL     1       0.150  -0.977 -13.181  1.00  0.00    -0.124 SA
BRANCH  48  49
ATOM     49  C   UNL     1       1.877  -1.414 -13.275  1.00  0.00     0.007 A 
ATOM     50  C   UNL     1       2.827  -0.413 -13.037  1.00  0.00     0.015 A 
ATOM     51  C   UNL     1       2.315  -2.700 -13.611  1.00  0.00     0.015 A 
ATOM     52  C   UNL     1       4.192  -0.695 -13.116  1.00  0.00     0.001 A 
ATOM     53  C   UNL     1       3.681  -2.984 -13.685  1.00  0.00     0.001 A 
ATOM     54  C   UNL     1       4.619  -1.983 -13.437  1.00  0.00     0.000 A 
ENDBRANCH  48  49
ENDBRANCH  47  48
ENDBRANCH  46  47
ENDBRANCH  44  46
ENDBRANCH  40  44
ENDBRANCH  32  35
ENDBRANCH   3  32
TORSDOF 14
ENDMDL
