MODEL 1
REMARK VINA RESULT:      -6.5      0.000      0.000
REMARK SMILES CC(=O)N[C@@H](Cc1ccccc1)C(=O)Nc1ccc(C(=O)NS(=O)(=O)c2ccc(NCCSc3ccccc3)c([N+](=O)[O-])c2)cc1
REMARK SMILES IDX 23 1 24 2 25 3 22 4 20 5 21 6 19 8 16 9 17 10 46 11 18 12
REMARK SMILES IDX 45 13 15 14 13 15 14 16 5 18 4 19 2 20 3 21 1 22 6 24 7 25
REMARK SMILES IDX 8 26 12 27 9 28 11 29 10 30 26 31 27 32 44 33 28 34 40 35
REMARK SMILES IDX 29 36 41 37 42 38 43 39 30 40 31 42 32 43 33 44 34 45 35 46
REMARK SMILES IDX 39 47 36 48 38 49 37 50
REMARK H PARENT 22 7 15 17 4 23 30 41
ROOT
ATOM      1  S   UNL     1      20.139  -1.174   9.054  1.00  0.00     0.264 S 
ATOM      2  O   UNL     1      20.972  -0.250   9.797  1.00  0.00    -0.201 OA
ATOM      3  O   UNL     1      18.970  -1.762   9.664  1.00  0.00    -0.201 OA
ENDROOT
BRANCH   1   4
ATOM      4  N   UNL     1      19.702  -0.357   7.675  1.00  0.00    -0.245 N 
ATOM      5  C   UNL     1      18.895   0.785   7.648  1.00  0.00     0.264 C 
ATOM      6  O   UNL     1      18.379   1.263   8.645  1.00  0.00    -0.268 OA
ATOM      7  H   UNL     1      20.185  -0.709   6.856  1.00  0.00     0.183 HD
BRANCH   5   8
ATOM      8  C   UNL     1      18.669   1.389   6.306  1.00  0.00     0.040 A 
ATOM      9  C   UNL     1      18.343   2.606   3.780  1.00  0.00     0.041 A 
ATOM     10  C   UNL     1      17.716   1.393   4.070  1.00  0.00     0.027 A 
ATOM     11  C   UNL     1      19.123   3.216   4.770  1.00  0.00     0.027 A 
ATOM     12  C   UNL     1      17.876   0.785   5.323  1.00  0.00     0.016 A 
ATOM     13  C   UNL     1      19.284   2.613   6.022  1.00  0.00     0.016 A 
BRANCH   9  14
ATOM     14  N   UNL     1      18.229   3.275   2.545  1.00  0.00    -0.324 N 
ATOM     15  C   UNL     1      17.278   4.218   2.183  1.00  0.00     0.247 C 
ATOM     16  O   UNL     1      16.351   4.623   2.884  1.00  0.00    -0.272 OA
ATOM     17  H   UNL     1      18.845   2.951   1.810  1.00  0.00     0.170 HD
BRANCH  15  18
ATOM     18  C   UNL     1      17.513   4.804   0.775  1.00  0.00     0.176 C 
BRANCH  18  19
ATOM     19  N   UNL     1      18.932   5.133   0.665  1.00  0.00    -0.344 N 
ATOM     20  C   UNL     1      19.380   6.354   1.115  1.00  0.00     0.217 C 
ATOM     21  O   UNL     1      18.632   7.241   1.513  1.00  0.00    -0.275 OA
ATOM     22  C   UNL     1      20.877   6.509   1.094  1.00  0.00     0.114 C 
ATOM     23  H   UNL     1      19.577   4.356   0.753  1.00  0.00     0.164 HD
ENDBRANCH  18  19
BRANCH  18  24
ATOM     24  C   UNL     1      17.073   3.751  -0.251  1.00  0.00     0.070 C 
BRANCH  24  25
ATOM     25  C   UNL     1      16.199   4.314  -1.345  1.00  0.00    -0.045 A 
ATOM     26  C   UNL     1      16.153   5.695  -1.583  1.00  0.00     0.004 A 
ATOM     27  C   UNL     1      15.429   3.462  -2.149  1.00  0.00     0.004 A 
ATOM     28  C   UNL     1      15.357   6.212  -2.607  1.00  0.00     0.000 A 
ATOM     29  C   UNL     1      14.634   3.982  -3.172  1.00  0.00     0.000 A 
ATOM     30  C   UNL     1      14.598   5.355  -3.401  1.00  0.00     0.000 A 
ENDBRANCH  24  25
ENDBRANCH  18  24
ENDBRANCH  15  18
ENDBRANCH   9  14
ENDBRANCH   5   8
ENDBRANCH   1   4
BRANCH   1  31
ATOM     31  C   UNL     1      21.199  -2.462   8.454  1.00  0.00     0.094 A 
ATOM     32  C   UNL     1      21.315  -3.647   9.176  1.00  0.00     0.025 A 
ATOM     33  C   UNL     1      21.843  -2.314   7.227  1.00  0.00     0.110 A 
ATOM     34  C   UNL     1      22.078  -4.701   8.661  1.00  0.00     0.034 A 
ATOM     35  C   UNL     1      22.601  -3.383   6.716  1.00  0.00     0.293 A 
ATOM     36  C   UNL     1      22.707  -4.620   7.405  1.00  0.00     0.113 A 
BRANCH  35  37
ATOM     37  N   UNL     1      23.243  -3.182   5.407  1.00  0.00     0.065 N 
ATOM     38  O   UNL     1      22.547  -2.752   4.471  1.00  0.00    -0.258 OA
ATOM     39  O   UNL     1      24.449  -3.447   5.306  1.00  0.00    -0.258 OA
ENDBRANCH  35  37
BRANCH  36  40
ATOM     40  N   UNL     1      23.489  -5.687   6.936  1.00  0.00    -0.379 N 
ATOM     41  H   UNL     1      23.771  -5.547   5.958  1.00  0.00     0.160 HD
BRANCH  40  42
ATOM     42  C   UNL     1      23.083  -7.082   7.158  1.00  0.00     0.124 C 
BRANCH  42  43
ATOM     43  C   UNL     1      22.673  -7.811   5.868  1.00  0.00     0.096 C 
BRANCH  43  44
ATOM     44  S   UNL     1      21.512  -6.865   4.807  1.00  0.00    -0.124 SA
BRANCH  44  45
ATOM     45  C   UNL     1      19.974  -7.753   4.958  1.00  0.00     0.007 A 
ATOM     46  C   UNL     1      19.263  -8.260   3.867  1.00  0.00     0.015 A 
ATOM     47  C   UNL     1      19.490  -8.005   6.250  1.00  0.00     0.015 A 
ATOM     48  C   UNL     1      18.066  -8.958   4.058  1.00  0.00     0.001 A 
ATOM     49  C   UNL     1      18.297  -8.707   6.443  1.00  0.00     0.001 A 
ATOM     50  C   UNL     1      17.580  -9.177   5.347  1.00  0.00     0.000 A 
ENDBRANCH  44  45
ENDBRANCH  43  44
ENDBRANCH  42  43
ENDBRANCH  40  42
ENDBRANCH  36  40
ENDBRANCH   1  31
TORSDOF 14
ENDMDL
MODEL 2
REMARK VINA RESULT:      -6.4      9.184     14.127
REMARK SMILES CC(=O)N[C@@H](Cc1ccccc1)C(=O)Nc1ccc(C(=O)NS(=O)(=O)c2ccc(NCCSc3ccccc3)c([N+](=O)[O-])c2)cc1
REMARK SMILES IDX 23 1 24 2 25 3 22 4 20 5 21 6 19 8 16 9 17 10 46 11 18 12
REMARK SMILES IDX 45 13 15 14 13 15 14 16 5 18 4 19 2 20 3 21 1 22 6 24 7 25
REMARK SMILES IDX 8 26 12 27 9 28 11 29 10 30 26 31 27 32 44 33 28 34 40 35
REMARK SMILES IDX 29 36 41 37 42 38 43 39 30 40 31 42 32 43 33 44 34 45 35 46
REMARK SMILES IDX 39 47 36 48 38 49 37 50
REMARK H PARENT 22 7 15 17 4 23 30 41
ROOT
ATOM      1  S   UNL     1      17.401   4.475  -1.846  1.00  0.00     0.264 S 
ATOM      2  O   UNL     1      18.705   4.966  -2.242  1.00  0.00    -0.201 OA
ATOM      3  O   UNL     1      17.163   3.058  -1.699  1.00  0.00    -0.201 OA
ENDROOT
BRANCH   1   4
ATOM      4  N   UNL     1      17.053   5.253  -0.420  1.00  0.00    -0.245 N 
ATOM      5  C   UNL     1      17.722   5.036   0.789  1.00  0.00     0.264 C 
ATOM      6  O   UNL     1      18.598   4.198   0.928  1.00  0.00    -0.268 OA
ATOM      7  H   UNL     1      16.376   5.997  -0.549  1.00  0.00     0.183 HD
BRANCH   5   8
ATOM      8  C   UNL     1      17.283   5.880   1.935  1.00  0.00     0.040 A 
ATOM      9  C   UNL     1      16.565   7.465   4.158  1.00  0.00     0.041 A 
ATOM     10  C   UNL     1      15.829   7.528   2.973  1.00  0.00     0.027 A 
ATOM     11  C   UNL     1      17.656   6.590   4.228  1.00  0.00     0.027 A 
ATOM     12  C   UNL     1      16.183   6.743   1.867  1.00  0.00     0.016 A 
ATOM     13  C   UNL     1      18.012   5.804   3.126  1.00  0.00     0.016 A 
BRANCH   9  14
ATOM     14  N   UNL     1      16.270   8.222   5.309  1.00  0.00    -0.324 N 
ATOM     15  C   UNL     1      15.533   7.823   6.413  1.00  0.00     0.247 C 
ATOM     16  O   UNL     1      14.990   6.729   6.569  1.00  0.00    -0.272 OA
ATOM     17  H   UNL     1      16.538   9.198   5.274  1.00  0.00     0.170 HD
BRANCH  15  18
ATOM     18  C   UNL     1      15.487   8.888   7.527  1.00  0.00     0.176 C 
BRANCH  18  19
ATOM     19  N   UNL     1      16.544   8.571   8.485  1.00  0.00    -0.344 N 
ATOM     20  C   UNL     1      16.209   8.273   9.787  1.00  0.00     0.217 C 
ATOM     21  O   UNL     1      15.067   8.361  10.226  1.00  0.00    -0.275 OA
ATOM     22  C   UNL     1      17.365   7.809  10.631  1.00  0.00     0.114 C 
ATOM     23  H   UNL     1      17.358   8.099   8.110  1.00  0.00     0.164 HD
ENDBRANCH  18  19
BRANCH  18  24
ATOM     24  C   UNL     1      15.683  10.263   6.872  1.00  0.00     0.070 C 
BRANCH  24  25
ATOM     25  C   UNL     1      14.534  11.210   7.119  1.00  0.00    -0.045 A 
ATOM     26  C   UNL     1      14.403  12.386   6.368  1.00  0.00     0.004 A 
ATOM     27  C   UNL     1      13.572  10.919   8.096  1.00  0.00     0.004 A 
ATOM     28  C   UNL     1      13.329  13.251   6.586  1.00  0.00     0.000 A 
ATOM     29  C   UNL     1      12.499  11.786   8.312  1.00  0.00     0.000 A 
ATOM     30  C   UNL     1      12.378  12.951   7.559  1.00  0.00     0.000 A 
ENDBRANCH  24  25
ENDBRANCH  18  24
ENDBRANCH  15  18
ENDBRANCH   9  14
ENDBRANCH   5   8
ENDBRANCH   1   4
BRANCH   1  31
ATOM     31  C   UNL     1      16.224   5.152  -2.985  1.00  0.00     0.094 A 
ATOM     32  C   UNL     1      14.908   4.696  -2.964  1.00  0.00     0.025 A 
ATOM     33  C   UNL     1      16.599   6.188  -3.836  1.00  0.00     0.110 A 
ATOM     34  C   UNL     1      13.953   5.291  -3.798  1.00  0.00     0.034 A 
ATOM     35  C   UNL     1      15.631   6.783  -4.665  1.00  0.00     0.293 A 
ATOM     36  C   UNL     1      14.272   6.374  -4.639  1.00  0.00     0.113 A 
BRANCH  35  37
ATOM     37  N   UNL     1      16.077   7.889  -5.529  1.00  0.00     0.065 N 
ATOM     38  O   UNL     1      15.885   7.793  -6.753  1.00  0.00    -0.258 OA
ATOM     39  O   UNL     1      16.618   8.865  -4.987  1.00  0.00    -0.258 OA
ENDBRANCH  35  37
BRANCH  36  40
ATOM     40  N   UNL     1      13.295   6.923  -5.482  1.00  0.00    -0.379 N 
ATOM     41  H   UNL     1      13.539   6.798  -6.473  1.00  0.00     0.160 HD
BRANCH  40  42
ATOM     42  C   UNL     1      12.762   8.273  -5.252  1.00  0.00     0.124 C 
BRANCH  42  43
ATOM     43  C   UNL     1      12.859   8.726  -3.787  1.00  0.00     0.096 C 
BRANCH  43  44
ATOM     44  S   UNL     1      13.516  10.426  -3.569  1.00  0.00    -0.124 SA
BRANCH  44  45
ATOM     45  C   UNL     1      14.805  10.233  -2.352  1.00  0.00     0.007 A 
ATOM     46  C   UNL     1      15.555  11.298  -1.846  1.00  0.00     0.015 A 
ATOM     47  C   UNL     1      15.029   8.949  -1.837  1.00  0.00     0.015 A 
ATOM     48  C   UNL     1      16.546  11.077  -0.883  1.00  0.00     0.001 A 
ATOM     49  C   UNL     1      16.014   8.727  -0.871  1.00  0.00     0.001 A 
ATOM     50  C   UNL     1      16.779   9.790  -0.400  1.00  0.00     0.000 A 
ENDBRANCH  44  45
ENDBRANCH  43  44
ENDBRANCH  42  43
ENDBRANCH  40  42
ENDBRANCH  36  40
ENDBRANCH   1  31
TORSDOF 14
ENDMDL
MODEL 3
REMARK VINA RESULT:      -6.2      2.354      3.076
REMARK SMILES CC(=O)N[C@@H](Cc1ccccc1)C(=O)Nc1ccc(C(=O)NS(=O)(=O)c2ccc(NCCSc3ccccc3)c([N+](=O)[O-])c2)cc1
REMARK SMILES IDX 23 1 24 2 25 3 22 4 20 5 21 6 19 8 16 9 17 10 46 11 18 12
REMARK SMILES IDX 45 13 15 14 13 15 14 16 5 18 4 19 2 20 3 21 1 22 6 24 7 25
REMARK SMILES IDX 8 26 12 27 9 28 11 29 10 30 26 31 27 32 44 33 28 34 40 35
REMARK SMILES IDX 29 36 41 37 42 38 43 39 30 40 31 42 32 43 33 44 34 45 35 46
REMARK SMILES IDX 39 47 36 48 38 49 37 50
REMARK H PARENT 22 7 15 17 4 23 30 41
ROOT
ATOM      1  S   UNL     1      20.016  -1.399   9.267  1.00  0.00     0.264 S 
ATOM      2  O   UNL     1      20.726  -0.589  10.236  1.00  0.00    -0.201 OA
ATOM      3  O   UNL     1      18.830  -2.129   9.648  1.00  0.00    -0.201 OA
ENDROOT
BRANCH   1   4
ATOM      4  N   UNL     1      19.662  -0.371   8.011  1.00  0.00    -0.245 N 
ATOM      5  C   UNL     1      18.850   0.763   8.116  1.00  0.00     0.264 C 
ATOM      6  O   UNL     1      18.266   1.076   9.141  1.00  0.00    -0.268 OA
ATOM      7  H   UNL     1      20.200  -0.588   7.179  1.00  0.00     0.183 HD
BRANCH   5   8
ATOM      8  C   UNL     1      18.705   1.575   6.875  1.00  0.00     0.040 A 
ATOM      9  C   UNL     1      18.339   3.037   4.489  1.00  0.00     0.041 A 
ATOM     10  C   UNL     1      19.010   3.604   5.573  1.00  0.00     0.027 A 
ATOM     11  C   UNL     1      17.865   1.725   4.601  1.00  0.00     0.027 A 
ATOM     12  C   UNL     1      19.194   2.882   6.761  1.00  0.00     0.016 A 
ATOM     13  C   UNL     1      18.047   0.999   5.784  1.00  0.00     0.016 A 
BRANCH   9  14
ATOM     14  N   UNL     1      18.117   3.701   3.266  1.00  0.00    -0.324 N 
ATOM     15  C   UNL     1      17.039   4.505   2.928  1.00  0.00     0.247 C 
ATOM     16  O   UNL     1      16.072   4.765   3.644  1.00  0.00    -0.272 OA
ATOM     17  H   UNL     1      18.764   3.477   2.520  1.00  0.00     0.170 HD
BRANCH  15  18
ATOM     18  C   UNL     1      17.172   5.138   1.527  1.00  0.00     0.176 C 
BRANCH  18  19
ATOM     19  N   UNL     1      16.675   6.509   1.613  1.00  0.00    -0.344 N 
ATOM     20  C   UNL     1      16.053   7.072   0.523  1.00  0.00     0.217 C 
ATOM     21  O   UNL     1      15.982   6.522  -0.571  1.00  0.00    -0.275 OA
ATOM     22  C   UNL     1      15.446   8.424   0.787  1.00  0.00     0.114 C 
ATOM     23  H   UNL     1      16.344   6.806   2.524  1.00  0.00     0.164 HD
ENDBRANCH  18  19
BRANCH  18  24
ATOM     24  C   UNL     1      18.652   5.075   1.122  1.00  0.00     0.070 C 
BRANCH  24  25
ATOM     25  C   UNL     1      18.869   4.474  -0.246  1.00  0.00    -0.045 A 
ATOM     26  C   UNL     1      18.832   3.085  -0.430  1.00  0.00     0.004 A 
ATOM     27  C   UNL     1      19.099   5.298  -1.356  1.00  0.00     0.004 A 
ATOM     28  C   UNL     1      19.015   2.532  -1.699  1.00  0.00     0.000 A 
ATOM     29  C   UNL     1      19.283   4.743  -2.623  1.00  0.00     0.000 A 
ATOM     30  C   UNL     1      19.241   3.362  -2.795  1.00  0.00     0.000 A 
ENDBRANCH  24  25
ENDBRANCH  18  24
ENDBRANCH  15  18
ENDBRANCH   9  14
ENDBRANCH   5   8
ENDBRANCH   1   4
BRANCH   1  31
ATOM     31  C   UNL     1      21.195  -2.520   8.564  1.00  0.00     0.094 A 
ATOM     32  C   UNL     1      21.433  -3.744   9.184  1.00  0.00     0.025 A 
ATOM     33  C   UNL     1      21.814  -2.208   7.356  1.00  0.00     0.110 A 
ATOM     34  C   UNL     1      22.294  -4.671   8.585  1.00  0.00     0.034 A 
ATOM     35  C   UNL     1      22.671  -3.149   6.759  1.00  0.00     0.293 A 
ATOM     36  C   UNL     1      22.904  -4.423   7.341  1.00  0.00     0.113 A 
BRANCH  35  37
ATOM     37  N   UNL     1      23.282  -2.777   5.472  1.00  0.00     0.065 N 
ATOM     38  O   UNL     1      24.516  -2.873   5.357  1.00  0.00    -0.258 OA
ATOM     39  O   UNL     1      22.531  -2.392   4.564  1.00  0.00    -0.258 OA
ENDBRANCH  35  37
BRANCH  36  40
ATOM     40  N   UNL     1      23.785  -5.364   6.787  1.00  0.00    -0.379 N 
ATOM     41  H   UNL     1      24.345  -4.955   6.030  1.00  0.00     0.160 HD
BRANCH  40  42
ATOM     42  C   UNL     1      23.326  -6.710   6.417  1.00  0.00     0.124 C 
BRANCH  42  43
ATOM     43  C   UNL     1      23.955  -7.826   7.266  1.00  0.00     0.096 C 
BRANCH  43  44
ATOM     44  S   UNL     1      22.835  -9.241   7.594  1.00  0.00    -0.124 SA
BRANCH  44  45
ATOM     45  C   UNL     1      21.818  -8.678   8.947  1.00  0.00     0.007 A 
ATOM     46  C   UNL     1      20.726  -7.821   8.788  1.00  0.00     0.015 A 
ATOM     47  C   UNL     1      22.100  -9.177  10.227  1.00  0.00     0.015 A 
ATOM     48  C   UNL     1      19.963  -7.427   9.893  1.00  0.00     0.001 A 
ATOM     49  C   UNL     1      21.336  -8.789  11.330  1.00  0.00     0.001 A 
ATOM     50  C   UNL     1      20.272  -7.906  11.165  1.00  0.00     0.000 A 
ENDBRANCH  44  45
ENDBRANCH  43  44
ENDBRANCH  42  43
ENDBRANCH  40  42
ENDBRANCH  36  40
ENDBRANCH   1  31
TORSDOF 14
ENDMDL
MODEL 4
REMARK VINA RESULT:      -6.0      2.339      3.067
REMARK SMILES CC(=O)N[C@@H](Cc1ccccc1)C(=O)Nc1ccc(C(=O)NS(=O)(=O)c2ccc(NCCSc3ccccc3)c([N+](=O)[O-])c2)cc1
REMARK SMILES IDX 23 1 24 2 25 3 22 4 20 5 21 6 19 8 16 9 17 10 46 11 18 12
REMARK SMILES IDX 45 13 15 14 13 15 14 16 5 18 4 19 2 20 3 21 1 22 6 24 7 25
REMARK SMILES IDX 8 26 12 27 9 28 11 29 10 30 26 31 27 32 44 33 28 34 40 35
REMARK SMILES IDX 29 36 41 37 42 38 43 39 30 40 31 42 32 43 33 44 34 45 35 46
REMARK SMILES IDX 39 47 36 48 38 49 37 50
REMARK H PARENT 22 7 15 17 4 23 30 41
ROOT
ATOM      1  S   UNL     1      20.249  -1.167   8.986  1.00  0.00     0.264 S 
ATOM      2  O   UNL     1      21.045  -0.292   9.822  1.00  0.00    -0.201 OA
ATOM      3  O   UNL     1      19.060  -1.799   9.507  1.00  0.00    -0.201 OA
ENDROOT
BRANCH   1   4
ATOM      4  N   UNL     1      19.863  -0.263   7.647  1.00  0.00    -0.245 N 
ATOM      5  C   UNL     1      19.054   0.878   7.663  1.00  0.00     0.264 C 
ATOM      6  O   UNL     1      18.498   1.290   8.668  1.00  0.00    -0.268 OA
ATOM      7  H   UNL     1      20.379  -0.561   6.826  1.00  0.00     0.183 HD
BRANCH   5   8
ATOM      8  C   UNL     1      18.878   1.568   6.355  1.00  0.00     0.040 A 
ATOM      9  C   UNL     1      18.420   2.877   3.896  1.00  0.00     0.041 A 
ATOM     10  C   UNL     1      19.687   2.889   4.482  1.00  0.00     0.027 A 
ATOM     11  C   UNL     1      17.385   2.190   4.542  1.00  0.00     0.027 A 
ATOM     12  C   UNL     1      19.918   2.241   5.704  1.00  0.00     0.016 A 
ATOM     13  C   UNL     1      17.612   1.540   5.761  1.00  0.00     0.016 A 
BRANCH   9  14
ATOM     14  N   UNL     1      18.112   3.505   2.673  1.00  0.00    -0.324 N 
ATOM     15  C   UNL     1      18.486   3.099   1.401  1.00  0.00     0.247 C 
ATOM     16  O   UNL     1      19.173   2.116   1.123  1.00  0.00    -0.272 OA
ATOM     17  H   UNL     1      17.659   4.408   2.743  1.00  0.00     0.170 HD
BRANCH  15  18
ATOM     18  C   UNL     1      17.895   3.985   0.285  1.00  0.00     0.176 C 
BRANCH  18  19
ATOM     19  N   UNL     1      17.788   3.165  -0.920  1.00  0.00    -0.344 N 
ATOM     20  C   UNL     1      18.450   3.552  -2.062  1.00  0.00     0.217 C 
ATOM     21  O   UNL     1      19.050   4.617  -2.165  1.00  0.00    -0.275 OA
ATOM     22  C   UNL     1      18.392   2.547  -3.180  1.00  0.00     0.114 C 
ATOM     23  H   UNL     1      17.691   2.167  -0.772  1.00  0.00     0.164 HD
ENDBRANCH  18  19
BRANCH  18  24
ATOM     24  C   UNL     1      16.531   4.500   0.766  1.00  0.00     0.070 C 
BRANCH  24  25
ATOM     25  C   UNL     1      16.297   5.956   0.442  1.00  0.00    -0.045 A 
ATOM     26  C   UNL     1      16.198   6.909   1.466  1.00  0.00     0.004 A 
ATOM     27  C   UNL     1      16.188   6.378  -0.889  1.00  0.00     0.004 A 
ATOM     28  C   UNL     1      15.999   8.257   1.163  1.00  0.00     0.000 A 
ATOM     29  C   UNL     1      15.989   7.727  -1.190  1.00  0.00     0.000 A 
ATOM     30  C   UNL     1      15.894   8.666  -0.165  1.00  0.00     0.000 A 
ENDBRANCH  24  25
ENDBRANCH  18  24
ENDBRANCH  15  18
ENDBRANCH   9  14
ENDBRANCH   5   8
ENDBRANCH   1   4
BRANCH   1  31
ATOM     31  C   UNL     1      21.340  -2.409   8.346  1.00  0.00     0.094 A 
ATOM     32  C   UNL     1      21.417  -3.647   8.979  1.00  0.00     0.025 A 
ATOM     33  C   UNL     1      22.052  -2.169   7.173  1.00  0.00     0.110 A 
ATOM     34  C   UNL     1      22.207  -4.661   8.426  1.00  0.00     0.034 A 
ATOM     35  C   UNL     1      22.838  -3.197   6.623  1.00  0.00     0.293 A 
ATOM     36  C   UNL     1      22.905  -4.485   7.217  1.00  0.00     0.113 A 
BRANCH  35  37
ATOM     37  N   UNL     1      23.551  -2.897   5.371  1.00  0.00     0.065 N 
ATOM     38  O   UNL     1      23.273  -3.565   4.361  1.00  0.00    -0.258 OA
ATOM     39  O   UNL     1      24.392  -1.986   5.387  1.00  0.00    -0.258 OA
ENDBRANCH  35  37
BRANCH  36  40
ATOM     40  N   UNL     1      23.712  -5.515   6.711  1.00  0.00    -0.379 N 
ATOM     41  H   UNL     1      24.243  -5.208   5.886  1.00  0.00     0.160 HD
BRANCH  40  42
ATOM     42  C   UNL     1      23.177  -6.867   6.500  1.00  0.00     0.124 C 
BRANCH  42  43
ATOM     43  C   UNL     1      23.904  -7.947   7.318  1.00  0.00     0.096 C 
BRANCH  43  44
ATOM     44  S   UNL     1      22.844  -9.364   7.801  1.00  0.00    -0.124 SA
BRANCH  44  45
ATOM     45  C   UNL     1      21.773  -8.690   9.057  1.00  0.00     0.007 A 
ATOM     46  C   UNL     1      20.630  -7.936   8.776  1.00  0.00     0.015 A 
ATOM     47  C   UNL     1      22.069  -8.989  10.395  1.00  0.00     0.015 A 
ATOM     48  C   UNL     1      19.828  -7.447   9.812  1.00  0.00     0.001 A 
ATOM     49  C   UNL     1      21.265  -8.505  11.431  1.00  0.00     0.001 A 
ATOM     50  C   UNL     1      20.148  -7.726  11.140  1.00  0.00     0.000 A 
ENDBRANCH  44  45
ENDBRANCH  43  44
ENDBRANCH  42  43
ENDBRANCH  40  42
ENDBRANCH  36  40
ENDBRANCH   1  31
TORSDOF 14
ENDMDL
MODEL 5
REMARK VINA RESULT:      -6.0     29.920     33.268
REMARK SMILES CC(=O)N[C@@H](Cc1ccccc1)C(=O)Nc1ccc(C(=O)NS(=O)(=O)c2ccc(NCCSc3ccccc3)c([N+](=O)[O-])c2)cc1
REMARK SMILES IDX 23 1 24 2 25 3 22 4 20 5 21 6 19 8 16 9 17 10 46 11 18 12
REMARK SMILES IDX 45 13 15 14 13 15 14 16 5 18 4 19 2 20 3 21 1 22 6 24 7 25
REMARK SMILES IDX 8 26 12 27 9 28 11 29 10 30 26 31 27 32 44 33 28 34 40 35
REMARK SMILES IDX 29 36 41 37 42 38 43 39 30 40 31 42 32 43 33 44 34 45 35 46
REMARK SMILES IDX 39 47 36 48 38 49 37 50
REMARK H PARENT 22 7 15 17 4 23 30 41
ROOT
ATOM      1  S   UNL     1     -12.022  -1.772   0.637  1.00  0.00     0.264 S 
ATOM      2  O   UNL     1     -12.388  -0.631  -0.177  1.00  0.00    -0.201 OA
ATOM      3  O   UNL     1     -11.060  -2.736   0.160  1.00  0.00    -0.201 OA
ENDROOT
BRANCH   1   4
ATOM      4  N   UNL     1     -11.508  -1.133   2.082  1.00  0.00    -0.245 N 
ATOM      5  C   UNL     1     -12.062  -0.005   2.696  1.00  0.00     0.264 C 
ATOM      6  O   UNL     1     -12.952   0.662   2.192  1.00  0.00    -0.268 OA
ATOM      7  H   UNL     1     -10.819  -1.723   2.534  1.00  0.00     0.183 HD
BRANCH   5   8
ATOM      8  C   UNL     1     -11.481   0.368   4.016  1.00  0.00     0.040 A 
ATOM      9  C   UNL     1     -10.265   1.046   6.471  1.00  0.00     0.041 A 
ATOM     10  C   UNL     1     -11.554   1.490   6.170  1.00  0.00     0.027 A 
ATOM     11  C   UNL     1      -9.593   0.245   5.539  1.00  0.00     0.027 A 
ATOM     12  C   UNL     1     -12.161   1.156   4.951  1.00  0.00     0.016 A 
ATOM     13  C   UNL     1     -10.196  -0.092   4.323  1.00  0.00     0.016 A 
BRANCH   9  14
ATOM     14  N   UNL     1      -9.591   1.341   7.673  1.00  0.00    -0.324 N 
ATOM     15  C   UNL     1      -9.535   0.563   8.819  1.00  0.00     0.247 C 
ATOM     16  O   UNL     1     -10.085  -0.525   8.988  1.00  0.00    -0.272 OA
ATOM     17  H   UNL     1      -9.196   2.272   7.739  1.00  0.00     0.170 HD
BRANCH  15  18
ATOM     18  C   UNL     1      -8.631   1.165   9.915  1.00  0.00     0.176 C 
BRANCH  18  19
ATOM     19  N   UNL     1      -7.775   0.092  10.418  1.00  0.00    -0.344 N 
ATOM     20  C   UNL     1      -7.614  -0.063  11.776  1.00  0.00     0.217 C 
ATOM     21  O   UNL     1      -8.069   0.720  12.602  1.00  0.00    -0.275 OA
ATOM     22  C   UNL     1      -6.842  -1.294  12.169  1.00  0.00     0.114 C 
ATOM     23  H   UNL     1      -7.747  -0.754   9.860  1.00  0.00     0.164 HD
ENDBRANCH  18  19
BRANCH  18  24
ATOM     24  C   UNL     1      -7.826   2.310   9.284  1.00  0.00     0.070 C 
BRANCH  24  25
ATOM     25  C   UNL     1      -7.785   3.552  10.142  1.00  0.00    -0.045 A 
ATOM     26  C   UNL     1      -6.793   3.712  11.119  1.00  0.00     0.004 A 
ATOM     27  C   UNL     1      -8.732   4.569   9.964  1.00  0.00     0.004 A 
ATOM     28  C   UNL     1      -6.747   4.869  11.899  1.00  0.00     0.000 A 
ATOM     29  C   UNL     1      -8.684   5.725  10.746  1.00  0.00     0.000 A 
ATOM     30  C   UNL     1      -7.692   5.875  11.712  1.00  0.00     0.000 A 
ENDBRANCH  24  25
ENDBRANCH  18  24
ENDBRANCH  15  18
ENDBRANCH   9  14
ENDBRANCH   5   8
ENDBRANCH   1   4
BRANCH   1  31
ATOM     31  C   UNL     1     -13.526  -2.607   1.067  1.00  0.00     0.094 A 
ATOM     32  C   UNL     1     -13.534  -3.499   2.136  1.00  0.00     0.025 A 
ATOM     33  C   UNL     1     -14.704  -2.306   0.387  1.00  0.00     0.110 A 
ATOM     34  C   UNL     1     -14.737  -4.092   2.536  1.00  0.00     0.034 A 
ATOM     35  C   UNL     1     -15.908  -2.902   0.802  1.00  0.00     0.293 A 
ATOM     36  C   UNL     1     -15.961  -3.783   1.914  1.00  0.00     0.113 A 
BRANCH  35  37
ATOM     37  N   UNL     1     -17.127  -2.533   0.063  1.00  0.00     0.065 N 
ATOM     38  O   UNL     1     -17.517  -1.355   0.123  1.00  0.00    -0.258 OA
ATOM     39  O   UNL     1     -17.700  -3.419  -0.587  1.00  0.00    -0.258 OA
ENDBRANCH  35  37
BRANCH  36  40
ATOM     40  N   UNL     1     -17.142  -4.421   2.325  1.00  0.00    -0.379 N 
ATOM     41  H   UNL     1     -17.800  -4.533   1.544  1.00  0.00     0.160 HD
BRANCH  40  42
ATOM     42  C   UNL     1     -17.853  -3.998   3.539  1.00  0.00     0.124 C 
BRANCH  42  43
ATOM     43  C   UNL     1     -18.903  -2.905   3.283  1.00  0.00     0.096 C 
BRANCH  43  44
ATOM     44  S   UNL     1     -18.336  -1.209   3.694  1.00  0.00    -0.124 SA
BRANCH  44  45
ATOM     45  C   UNL     1     -16.917  -1.474   4.741  1.00  0.00     0.007 A 
ATOM     46  C   UNL     1     -15.605  -1.187   4.352  1.00  0.00     0.015 A 
ATOM     47  C   UNL     1     -17.145  -1.938   6.044  1.00  0.00     0.015 A 
ATOM     48  C   UNL     1     -14.538  -1.409   5.229  1.00  0.00     0.001 A 
ATOM     49  C   UNL     1     -16.081  -2.155   6.923  1.00  0.00     0.001 A 
ATOM     50  C   UNL     1     -14.775  -1.899   6.513  1.00  0.00     0.000 A 
ENDBRANCH  44  45
ENDBRANCH  43  44
ENDBRANCH  42  43
ENDBRANCH  40  42
ENDBRANCH  36  40
ENDBRANCH   1  31
TORSDOF 14
ENDMDL
MODEL 6
REMARK VINA RESULT:      -5.7     34.028     37.588
REMARK SMILES CC(=O)N[C@@H](Cc1ccccc1)C(=O)Nc1ccc(C(=O)NS(=O)(=O)c2ccc(NCCSc3ccccc3)c([N+](=O)[O-])c2)cc1
REMARK SMILES IDX 23 1 24 2 25 3 22 4 20 5 21 6 19 8 16 9 17 10 46 11 18 12
REMARK SMILES IDX 45 13 15 14 13 15 14 16 5 18 4 19 2 20 3 21 1 22 6 24 7 25
REMARK SMILES IDX 8 26 12 27 9 28 11 29 10 30 26 31 27 32 44 33 28 34 40 35
REMARK SMILES IDX 29 36 41 37 42 38 43 39 30 40 31 42 32 43 33 44 34 45 35 46
REMARK SMILES IDX 39 47 36 48 38 49 37 50
REMARK H PARENT 22 7 15 17 4 23 30 41
ROOT
ATOM      1  S   UNL     1     -14.396  -4.527   4.106  1.00  0.00     0.264 S 
ATOM      2  O   UNL     1     -15.319  -3.943   5.058  1.00  0.00    -0.201 OA
ATOM      3  O   UNL     1     -13.065  -4.910   4.515  1.00  0.00    -0.201 OA
ENDROOT
BRANCH   1   4
ATOM      4  N   UNL     1     -15.190  -5.843   3.476  1.00  0.00    -0.245 N 
ATOM      5  C   UNL     1     -15.467  -7.019   4.181  1.00  0.00     0.264 C 
ATOM      6  O   UNL     1     -15.093  -7.216   5.325  1.00  0.00    -0.268 OA
ATOM      7  H   UNL     1     -15.562  -5.655   2.551  1.00  0.00     0.183 HD
BRANCH   5   8
ATOM      8  C   UNL     1     -16.237  -8.055   3.438  1.00  0.00     0.040 A 
ATOM      9  C   UNL     1     -17.695 -10.091   2.136  1.00  0.00     0.041 A 
ATOM     10  C   UNL     1     -17.669  -8.795   1.619  1.00  0.00     0.027 A 
ATOM     11  C   UNL     1     -16.972 -10.367   3.302  1.00  0.00     0.027 A 
ATOM     12  C   UNL     1     -16.946  -7.780   2.264  1.00  0.00     0.016 A 
ATOM     13  C   UNL     1     -16.248  -9.358   3.948  1.00  0.00     0.016 A 
BRANCH   9  14
ATOM     14  N   UNL     1     -18.398 -11.160   1.545  1.00  0.00    -0.324 N 
ATOM     15  C   UNL     1     -19.743 -11.202   1.214  1.00  0.00     0.247 C 
ATOM     16  O   UNL     1     -20.567 -10.306   1.399  1.00  0.00    -0.272 OA
ATOM     17  H   UNL     1     -17.882 -12.027   1.451  1.00  0.00     0.170 HD
BRANCH  15  18
ATOM     18  C   UNL     1     -20.151 -12.508   0.501  1.00  0.00     0.176 C 
BRANCH  18  19
ATOM     19  N   UNL     1     -20.283 -13.546   1.521  1.00  0.00    -0.344 N 
ATOM     20  C   UNL     1     -19.820 -14.815   1.259  1.00  0.00     0.217 C 
ATOM     21  O   UNL     1     -19.389 -15.162   0.165  1.00  0.00    -0.275 OA
ATOM     22  C   UNL     1     -19.868 -15.746   2.440  1.00  0.00     0.114 C 
ATOM     23  H   UNL     1     -20.224 -13.234   2.484  1.00  0.00     0.164 HD
ENDBRANCH  18  19
BRANCH  18  24
ATOM     24  C   UNL     1     -21.468 -12.246  -0.243  1.00  0.00     0.070 C 
BRANCH  24  25
ATOM     25  C   UNL     1     -21.273 -11.935  -1.708  1.00  0.00    -0.045 A 
ATOM     26  C   UNL     1     -22.161 -11.085  -2.382  1.00  0.00     0.004 A 
ATOM     27  C   UNL     1     -20.191 -12.482  -2.412  1.00  0.00     0.004 A 
ATOM     28  C   UNL     1     -21.967 -10.785  -3.732  1.00  0.00     0.000 A 
ATOM     29  C   UNL     1     -20.001 -12.180  -3.761  1.00  0.00     0.000 A 
ATOM     30  C   UNL     1     -20.887 -11.333  -4.421  1.00  0.00     0.000 A 
ENDBRANCH  24  25
ENDBRANCH  18  24
ENDBRANCH  15  18
ENDBRANCH   9  14
ENDBRANCH   5   8
ENDBRANCH   1   4
BRANCH   1  31
ATOM     31  C   UNL     1     -14.289  -3.411   2.734  1.00  0.00     0.094 A 
ATOM     32  C   UNL     1     -13.044  -2.935   2.331  1.00  0.00     0.025 A 
ATOM     33  C   UNL     1     -15.438  -3.080   2.018  1.00  0.00     0.110 A 
ATOM     34  C   UNL     1     -12.944  -2.127   1.192  1.00  0.00     0.034 A 
ATOM     35  C   UNL     1     -15.326  -2.273   0.872  1.00  0.00     0.293 A 
ATOM     36  C   UNL     1     -14.068  -1.806   0.408  1.00  0.00     0.113 A 
BRANCH  35  37
ATOM     37  N   UNL     1     -16.568  -1.972   0.141  1.00  0.00     0.065 N 
ATOM     38  O   UNL     1     -16.773  -0.798  -0.212  1.00  0.00    -0.258 OA
ATOM     39  O   UNL     1     -17.344  -2.910  -0.092  1.00  0.00    -0.258 OA
ENDBRANCH  35  37
BRANCH  36  40
ATOM     40  N   UNL     1     -13.932  -0.968  -0.710  1.00  0.00    -0.379 N 
ATOM     41  H   UNL     1     -14.847  -0.717  -1.105  1.00  0.00     0.160 HD
BRANCH  40  42
ATOM     42  C   UNL     1     -12.977  -1.277  -1.782  1.00  0.00     0.124 C 
BRANCH  42  43
ATOM     43  C   UNL     1     -11.648  -0.514  -1.656  1.00  0.00     0.096 C 
BRANCH  43  44
ATOM     44  S   UNL     1     -10.383  -1.001  -2.892  1.00  0.00    -0.124 SA
BRANCH  44  45
ATOM     45  C   UNL     1      -9.711  -2.519  -2.241  1.00  0.00     0.007 A 
ATOM     46  C   UNL     1      -9.191  -3.541  -3.041  1.00  0.00     0.015 A 
ATOM     47  C   UNL     1      -9.648  -2.660  -0.847  1.00  0.00     0.015 A 
ATOM     48  C   UNL     1      -8.669  -4.702  -2.462  1.00  0.00     0.001 A 
ATOM     49  C   UNL     1      -9.121  -3.817  -0.267  1.00  0.00     0.001 A 
ATOM     50  C   UNL     1      -8.639  -4.843  -1.076  1.00  0.00     0.000 A 
ENDBRANCH  44  45
ENDBRANCH  43  44
ENDBRANCH  42  43
ENDBRANCH  40  42
ENDBRANCH  36  40
ENDBRANCH   1  31
TORSDOF 14
ENDMDL
MODEL 7
REMARK VINA RESULT:      -5.5     31.259     34.256
REMARK SMILES CC(=O)N[C@@H](Cc1ccccc1)C(=O)Nc1ccc(C(=O)NS(=O)(=O)c2ccc(NCCSc3ccccc3)c([N+](=O)[O-])c2)cc1
REMARK SMILES IDX 23 1 24 2 25 3 22 4 20 5 21 6 19 8 16 9 17 10 46 11 18 12
REMARK SMILES IDX 45 13 15 14 13 15 14 16 5 18 4 19 2 20 3 21 1 22 6 24 7 25
REMARK SMILES IDX 8 26 12 27 9 28 11 29 10 30 26 31 27 32 44 33 28 34 40 35
REMARK SMILES IDX 29 36 41 37 42 38 43 39 30 40 31 42 32 43 33 44 34 45 35 46
REMARK SMILES IDX 39 47 36 48 38 49 37 50
REMARK H PARENT 22 7 15 17 4 23 30 41
ROOT
ATOM      1  S   UNL     1     -12.372  -0.985  -0.027  1.00  0.00     0.264 S 
ATOM      2  O   UNL     1     -12.890  -0.891  -1.376  1.00  0.00    -0.201 OA
ATOM      3  O   UNL     1     -11.082  -1.581   0.224  1.00  0.00    -0.201 OA
ENDROOT
BRANCH   1   4
ATOM      4  N   UNL     1     -12.398   0.568   0.562  1.00  0.00    -0.245 N 
ATOM      5  C   UNL     1     -11.950   0.944   1.833  1.00  0.00     0.264 C 
ATOM      6  O   UNL     1     -11.548   0.147   2.665  1.00  0.00    -0.268 OA
ATOM      7  H   UNL     1     -12.664   1.240  -0.149  1.00  0.00     0.183 HD
BRANCH   5   8
ATOM      8  C   UNL     1     -12.016   2.401   2.139  1.00  0.00     0.040 A 
ATOM      9  C   UNL     1     -12.069   5.139   2.823  1.00  0.00     0.041 A 
ATOM     10  C   UNL     1     -12.370   4.725   1.524  1.00  0.00     0.027 A 
ATOM     11  C   UNL     1     -11.756   4.170   3.783  1.00  0.00     0.027 A 
ATOM     12  C   UNL     1     -12.344   3.366   1.180  1.00  0.00     0.016 A 
ATOM     13  C   UNL     1     -11.730   2.812   3.446  1.00  0.00     0.016 A 
BRANCH   9  14
ATOM     14  N   UNL     1     -12.075   6.484   3.241  1.00  0.00    -0.324 N 
ATOM     15  C   UNL     1     -11.096   7.440   3.017  1.00  0.00     0.247 C 
ATOM     16  O   UNL     1     -10.034   7.268   2.419  1.00  0.00    -0.272 OA
ATOM     17  H   UNL     1     -12.828   6.748   3.865  1.00  0.00     0.170 HD
BRANCH  15  18
ATOM     18  C   UNL     1     -11.480   8.836   3.549  1.00  0.00     0.176 C 
BRANCH  18  19
ATOM     19  N   UNL     1     -10.541   9.175   4.616  1.00  0.00    -0.344 N 
ATOM     20  C   UNL     1     -10.691   8.598   5.857  1.00  0.00     0.217 C 
ATOM     21  O   UNL     1     -11.642   7.885   6.157  1.00  0.00    -0.275 OA
ATOM     22  C   UNL     1      -9.574   8.901   6.818  1.00  0.00     0.114 C 
ATOM     23  H   UNL     1      -9.591   9.379   4.326  1.00  0.00     0.164 HD
ENDBRANCH  18  19
BRANCH  18  24
ATOM     24  C   UNL     1     -11.412   9.822   2.374  1.00  0.00     0.070 C 
BRANCH  24  25
ATOM     25  C   UNL     1     -12.521  10.846   2.391  1.00  0.00    -0.045 A 
ATOM     26  C   UNL     1     -12.298  12.132   2.905  1.00  0.00     0.004 A 
ATOM     27  C   UNL     1     -13.787  10.530   1.881  1.00  0.00     0.004 A 
ATOM     28  C   UNL     1     -13.321  13.082   2.904  1.00  0.00     0.000 A 
ATOM     29  C   UNL     1     -14.808  11.482   1.881  1.00  0.00     0.000 A 
ATOM     30  C   UNL     1     -14.575  12.757   2.392  1.00  0.00     0.000 A 
ENDBRANCH  24  25
ENDBRANCH  18  24
ENDBRANCH  15  18
ENDBRANCH   9  14
ENDBRANCH   5   8
ENDBRANCH   1   4
BRANCH   1  31
ATOM     31  C   UNL     1     -13.601  -1.816   0.944  1.00  0.00     0.094 A 
ATOM     32  C   UNL     1     -14.882  -1.991   0.426  1.00  0.00     0.025 A 
ATOM     33  C   UNL     1     -13.258  -2.358   2.180  1.00  0.00     0.110 A 
ATOM     34  C   UNL     1     -15.829  -2.725   1.150  1.00  0.00     0.034 A 
ATOM     35  C   UNL     1     -14.215  -3.099   2.896  1.00  0.00     0.293 A 
ATOM     36  C   UNL     1     -15.516  -3.334   2.380  1.00  0.00     0.113 A 
BRANCH  35  37
ATOM     37  N   UNL     1     -13.793  -3.668   4.186  1.00  0.00     0.065 N 
ATOM     38  O   UNL     1     -13.446  -4.862   4.218  1.00  0.00    -0.258 OA
ATOM     39  O   UNL     1     -13.799  -2.924   5.178  1.00  0.00    -0.258 OA
ENDBRANCH  35  37
BRANCH  36  40
ATOM     40  N   UNL     1     -16.502  -4.037   3.090  1.00  0.00    -0.379 N 
ATOM     41  H   UNL     1     -16.469  -5.043   2.884  1.00  0.00     0.160 HD
BRANCH  40  42
ATOM     42  C   UNL     1     -17.893  -3.566   3.128  1.00  0.00     0.124 C 
BRANCH  42  43
ATOM     43  C   UNL     1     -18.105  -2.360   4.058  1.00  0.00     0.096 C 
BRANCH  43  44
ATOM     44  S   UNL     1     -18.359  -0.770   3.178  1.00  0.00    -0.124 SA
BRANCH  44  45
ATOM     45  C   UNL     1     -19.301  -1.226   1.735  1.00  0.00     0.007 A 
ATOM     46  C   UNL     1     -18.801  -1.156   0.431  1.00  0.00     0.015 A 
ATOM     47  C   UNL     1     -20.591  -1.739   1.933  1.00  0.00     0.015 A 
ATOM     48  C   UNL     1     -19.592  -1.541  -0.656  1.00  0.00     0.001 A 
ATOM     49  C   UNL     1     -21.380  -2.128   0.847  1.00  0.00     0.001 A 
ATOM     50  C   UNL     1     -20.884  -2.021  -0.449  1.00  0.00     0.000 A 
ENDBRANCH  44  45
ENDBRANCH  43  44
ENDBRANCH  42  43
ENDBRANCH  40  42
ENDBRANCH  36  40
ENDBRANCH   1  31
TORSDOF 14
ENDMDL
MODEL 8
REMARK VINA RESULT:      -5.5     26.884     29.167
REMARK SMILES CC(=O)N[C@@H](Cc1ccccc1)C(=O)Nc1ccc(C(=O)NS(=O)(=O)c2ccc(NCCSc3ccccc3)c([N+](=O)[O-])c2)cc1
REMARK SMILES IDX 23 1 24 2 25 3 22 4 20 5 21 6 19 8 16 9 17 10 46 11 18 12
REMARK SMILES IDX 45 13 15 14 13 15 14 16 5 18 4 19 2 20 3 21 1 22 6 24 7 25
REMARK SMILES IDX 8 26 12 27 9 28 11 29 10 30 26 31 27 32 44 33 28 34 40 35
REMARK SMILES IDX 29 36 41 37 42 38 43 39 30 40 31 42 32 43 33 44 34 45 35 46
REMARK SMILES IDX 39 47 36 48 38 49 37 50
REMARK H PARENT 22 7 15 17 4 23 30 41
ROOT
ATOM      1  S   UNL     1     -10.203   2.944  11.732  1.00  0.00     0.264 S 
ATOM      2  O   UNL     1      -9.506   3.711  12.745  1.00  0.00    -0.201 OA
ATOM      3  O   UNL     1     -11.569   2.524  11.939  1.00  0.00    -0.201 OA
ENDROOT
BRANCH   1   4
ATOM      4  N   UNL     1     -10.099   3.853  10.346  1.00  0.00    -0.245 N 
ATOM      5  C   UNL     1     -10.710   5.098  10.163  1.00  0.00     0.264 C 
ATOM      6  O   UNL     1     -11.438   5.616  10.994  1.00  0.00    -0.268 OA
ATOM      7  H   UNL     1      -9.440   3.461   9.682  1.00  0.00     0.183 HD
BRANCH   5   8
ATOM      8  C   UNL     1     -10.445   5.766   8.858  1.00  0.00     0.040 A 
ATOM      9  C   UNL     1     -10.032   7.118   6.414  1.00  0.00     0.041 A 
ATOM     10  C   UNL     1      -9.060   6.252   6.921  1.00  0.00     0.027 A 
ATOM     11  C   UNL     1     -11.221   7.291   7.133  1.00  0.00     0.027 A 
ATOM     12  C   UNL     1      -9.261   5.580   8.134  1.00  0.00     0.016 A 
ATOM     13  C   UNL     1     -11.426   6.621   8.344  1.00  0.00     0.016 A 
BRANCH   9  14
ATOM     14  N   UNL     1      -9.900   7.826   5.204  1.00  0.00    -0.324 N 
ATOM     15  C   UNL     1      -9.377   9.098   5.025  1.00  0.00     0.247 C 
ATOM     16  O   UNL     1      -8.948   9.839   5.909  1.00  0.00    -0.272 OA
ATOM     17  H   UNL     1     -10.334   7.399   4.394  1.00  0.00     0.170 HD
BRANCH  15  18
ATOM     18  C   UNL     1      -9.312   9.523   3.543  1.00  0.00     0.176 C 
BRANCH  18  19
ATOM     19  N   UNL     1      -9.721   8.375   2.737  1.00  0.00    -0.344 N 
ATOM     20  C   UNL     1      -9.034   8.082   1.581  1.00  0.00     0.217 C 
ATOM     21  O   UNL     1      -8.149   8.798   1.123  1.00  0.00    -0.275 OA
ATOM     22  C   UNL     1      -9.447   6.791   0.928  1.00  0.00     0.114 C 
ATOM     23  H   UNL     1     -10.104   7.587   3.246  1.00  0.00     0.164 HD
ENDBRANCH  18  19
BRANCH  18  24
ATOM     24  C   UNL     1     -10.242  10.731   3.359  1.00  0.00     0.070 C 
BRANCH  24  25
ATOM     25  C   UNL     1     -11.653  10.343   2.989  1.00  0.00    -0.045 A 
ATOM     26  C   UNL     1     -12.071  10.359   1.651  1.00  0.00     0.004 A 
ATOM     27  C   UNL     1     -12.564   9.950   3.979  1.00  0.00     0.004 A 
ATOM     28  C   UNL     1     -13.371   9.984   1.310  1.00  0.00     0.000 A 
ATOM     29  C   UNL     1     -13.864   9.575   3.635  1.00  0.00     0.000 A 
ATOM     30  C   UNL     1     -14.268   9.592   2.302  1.00  0.00     0.000 A 
ENDBRANCH  24  25
ENDBRANCH  18  24
ENDBRANCH  15  18
ENDBRANCH   9  14
ENDBRANCH   5   8
ENDBRANCH   1   4
BRANCH   1  31
ATOM     31  C   UNL     1      -9.201   1.527  11.374  1.00  0.00     0.094 A 
ATOM     32  C   UNL     1      -8.137   1.208  12.213  1.00  0.00     0.025 A 
ATOM     33  C   UNL     1      -9.531   0.697  10.305  1.00  0.00     0.110 A 
ATOM     34  C   UNL     1      -7.399   0.040  11.987  1.00  0.00     0.034 A 
ATOM     35  C   UNL     1      -8.788  -0.478  10.091  1.00  0.00     0.293 A 
ATOM     36  C   UNL     1      -7.725  -0.856  10.952  1.00  0.00     0.113 A 
BRANCH  35  37
ATOM     37  N   UNL     1      -9.194  -1.330   8.961  1.00  0.00     0.065 N 
ATOM     38  O   UNL     1      -9.590  -2.482   9.206  1.00  0.00    -0.258 OA
ATOM     39  O   UNL     1      -9.124  -0.850   7.820  1.00  0.00    -0.258 OA
ENDBRANCH  35  37
BRANCH  36  40
ATOM     40  N   UNL     1      -6.942  -2.001  10.738  1.00  0.00    -0.379 N 
ATOM     41  H   UNL     1      -7.051  -2.358   9.781  1.00  0.00     0.160 HD
BRANCH  40  42
ATOM     42  C   UNL     1      -6.938  -3.110  11.701  1.00  0.00     0.124 C 
BRANCH  42  43
ATOM     43  C   UNL     1      -5.647  -3.195  12.530  1.00  0.00     0.096 C 
BRANCH  43  44
ATOM     44  S   UNL     1      -5.919  -3.556  14.309  1.00  0.00    -0.124 SA
BRANCH  44  45
ATOM     45  C   UNL     1      -4.408  -4.354  14.819  1.00  0.00     0.007 A 
ATOM     46  C   UNL     1      -4.180  -5.728  14.695  1.00  0.00     0.015 A 
ATOM     47  C   UNL     1      -3.377  -3.544  15.314  1.00  0.00     0.015 A 
ATOM     48  C   UNL     1      -2.965  -6.287  15.106  1.00  0.00     0.001 A 
ATOM     49  C   UNL     1      -2.161  -4.101  15.720  1.00  0.00     0.001 A 
ATOM     50  C   UNL     1      -1.958  -5.474  15.624  1.00  0.00     0.000 A 
ENDBRANCH  44  45
ENDBRANCH  43  44
ENDBRANCH  42  43
ENDBRANCH  40  42
ENDBRANCH  36  40
ENDBRANCH   1  31
TORSDOF 14
ENDMDL
MODEL 9
REMARK VINA RESULT:      -5.2     25.535     30.372
REMARK SMILES CC(=O)N[C@@H](Cc1ccccc1)C(=O)Nc1ccc(C(=O)NS(=O)(=O)c2ccc(NCCSc3ccccc3)c([N+](=O)[O-])c2)cc1
REMARK SMILES IDX 23 1 24 2 25 3 22 4 20 5 21 6 19 8 16 9 17 10 46 11 18 12
REMARK SMILES IDX 45 13 15 14 13 15 14 16 5 18 4 19 2 20 3 21 1 22 6 24 7 25
REMARK SMILES IDX 8 26 12 27 9 28 11 29 10 30 26 31 27 32 44 33 28 34 40 35
REMARK SMILES IDX 29 36 41 37 42 38 43 39 30 40 31 42 32 43 33 44 34 45 35 46
REMARK SMILES IDX 39 47 36 48 38 49 37 50
REMARK H PARENT 22 7 15 17 4 23 30 41
ROOT
ATOM      1  S   UNL     1     -11.931  13.265   5.620  1.00  0.00     0.264 S 
ATOM      2  O   UNL     1     -12.148  13.003   7.028  1.00  0.00    -0.201 OA
ATOM      3  O   UNL     1     -12.733  14.242   4.923  1.00  0.00    -0.201 OA
ENDROOT
BRANCH   1   4
ATOM      4  N   UNL     1     -10.323  13.664   5.491  1.00  0.00    -0.245 N 
ATOM      5  C   UNL     1      -9.759  14.854   5.961  1.00  0.00     0.264 C 
ATOM      6  O   UNL     1     -10.413  15.752   6.465  1.00  0.00    -0.268 OA
ATOM      7  H   UNL     1      -9.768  12.892   5.138  1.00  0.00     0.183 HD
BRANCH   5   8
ATOM      8  C   UNL     1      -8.285  14.986   5.787  1.00  0.00     0.040 A 
ATOM      9  C   UNL     1      -5.514  15.289   5.345  1.00  0.00     0.041 A 
ATOM     10  C   UNL     1      -6.010  15.098   6.635  1.00  0.00     0.027 A 
ATOM     11  C   UNL     1      -6.414  15.312   4.273  1.00  0.00     0.027 A 
ATOM     12  C   UNL     1      -7.386  14.948   6.859  1.00  0.00     0.016 A 
ATOM     13  C   UNL     1      -7.788  15.161   4.491  1.00  0.00     0.016 A 
BRANCH   9  14
ATOM     14  N   UNL     1      -4.147  15.447   5.042  1.00  0.00    -0.324 N 
ATOM     15  C   UNL     1      -3.358  16.565   5.269  1.00  0.00     0.247 C 
ATOM     16  O   UNL     1      -3.729  17.628   5.765  1.00  0.00    -0.272 OA
ATOM     17  H   UNL     1      -3.725  14.699   4.504  1.00  0.00     0.170 HD
BRANCH  15  18
ATOM     18  C   UNL     1      -1.879  16.349   4.888  1.00  0.00     0.176 C 
BRANCH  18  19
ATOM     19  N   UNL     1      -1.099  16.355   6.124  1.00  0.00    -0.344 N 
ATOM     20  C   UNL     1      -1.280  15.346   7.042  1.00  0.00     0.217 C 
ATOM     21  O   UNL     1      -2.144  14.483   6.933  1.00  0.00    -0.275 OA
ATOM     22  C   UNL     1      -0.310  15.377   8.192  1.00  0.00     0.114 C 
ATOM     23  H   UNL     1      -0.165  16.745   6.060  1.00  0.00     0.164 HD
ENDBRANCH  18  19
BRANCH  18  24
ATOM     24  C   UNL     1      -1.777  15.013   4.138  1.00  0.00     0.070 C 
BRANCH  24  25
ATOM     25  C   UNL     1      -0.780  15.042   3.004  1.00  0.00    -0.045 A 
ATOM     26  C   UNL     1      -0.364  16.261   2.450  1.00  0.00     0.004 A 
ATOM     27  C   UNL     1      -0.247  13.850   2.497  1.00  0.00     0.004 A 
ATOM     28  C   UNL     1       0.571  16.285   1.414  1.00  0.00     0.000 A 
ATOM     29  C   UNL     1       0.688  13.877   1.460  1.00  0.00     0.000 A 
ATOM     30  C   UNL     1       1.097  15.094   0.919  1.00  0.00     0.000 A 
ENDBRANCH  24  25
ENDBRANCH  18  24
ENDBRANCH  15  18
ENDBRANCH   9  14
ENDBRANCH   5   8
ENDBRANCH   1   4
BRANCH   1  31
ATOM     31  C   UNL     1     -12.040  11.708   4.779  1.00  0.00     0.094 A 
ATOM     32  C   UNL     1     -12.629  11.649   3.519  1.00  0.00     0.025 A 
ATOM     33  C   UNL     1     -11.466  10.573   5.346  1.00  0.00     0.110 A 
ATOM     34  C   UNL     1     -12.636  10.440   2.812  1.00  0.00     0.034 A 
ATOM     35  C   UNL     1     -11.473   9.365   4.625  1.00  0.00     0.293 A 
ATOM     36  C   UNL     1     -12.026   9.278   3.320  1.00  0.00     0.113 A 
BRANCH  35  37
ATOM     37  N   UNL     1     -10.833   8.202   5.261  1.00  0.00     0.065 N 
ATOM     38  O   UNL     1      -9.632   8.285   5.567  1.00  0.00    -0.258 OA
ATOM     39  O   UNL     1     -11.531   7.197   5.464  1.00  0.00    -0.258 OA
ENDBRANCH  35  37
BRANCH  36  40
ATOM     40  N   UNL     1     -12.081   8.078   2.595  1.00  0.00    -0.379 N 
ATOM     41  H   UNL     1     -12.406   7.299   3.180  1.00  0.00     0.160 HD
BRANCH  40  42
ATOM     42  C   UNL     1     -10.960   7.649   1.747  1.00  0.00     0.124 C 
BRANCH  42  43
ATOM     43  C   UNL     1      -9.943   8.768   1.466  1.00  0.00     0.096 C 
BRANCH  43  44
ATOM     44  S   UNL     1      -8.206   8.316   1.846  1.00  0.00    -0.124 SA
BRANCH  44  45
ATOM     45  C   UNL     1      -7.367   8.490   0.283  1.00  0.00     0.007 A 
ATOM     46  C   UNL     1      -6.836   9.697  -0.180  1.00  0.00     0.015 A 
ATOM     47  C   UNL     1      -7.179   7.334  -0.489  1.00  0.00     0.015 A 
ATOM     48  C   UNL     1      -6.179   9.760  -1.413  1.00  0.00     0.001 A 
ATOM     49  C   UNL     1      -6.518   7.395  -1.719  1.00  0.00     0.001 A 
ATOM     50  C   UNL     1      -6.025   8.610  -2.185  1.00  0.00     0.000 A 
ENDBRANCH  44  45
ENDBRANCH  43  44
ENDBRANCH  42  43
ENDBRANCH  40  42
ENDBRANCH  36  40
ENDBRANCH   1  31
TORSDOF 14
ENDMDL
