MODEL 1
REMARK VINA RESULT:      -8.2      0.000      0.000
REMARK SMILES CC(=O)/N=c1\sc(S(=O)(=O)NC(=O)c2ccc(N3CCN(Cc4ccccc4-c4ccc(Cl)cc4)CC3)cc2)nn1C
REMARK SMILES IDX 14 1 15 2 16 3 17 4 38 5 39 6 12 7 11 8 13 9 8 11 9 12 10 13
REMARK SMILES IDX 7 14 4 15 5 16 6 17 41 18 40 19 42 20 2 21 3 22 1 23 18 24
REMARK SMILES IDX 19 25 37 26 20 27 36 28 21 29 22 30 23 31 24 32 28 33 25 34
REMARK SMILES IDX 27 35 26 36 29 37 30 38 35 39 31 40 34 41 32 42 33 43
REMARK H PARENT 11 10
ROOT
ATOM      1  C   UNL     1      -8.776   3.296   9.211  1.00  0.00     0.040 A 
ATOM      2  C   UNL     1      -9.879   3.599   8.412  1.00  0.00     0.016 A 
ATOM      3  C   UNL     1     -10.161   2.830   7.273  1.00  0.00     0.027 A 
ATOM      4  C   UNL     1      -9.373   1.728   6.906  1.00  0.00     0.037 A 
ATOM      5  C   UNL     1      -8.259   1.459   7.719  1.00  0.00     0.027 A 
ATOM      6  C   UNL     1      -7.958   2.222   8.856  1.00  0.00     0.016 A 
ENDROOT
BRANCH   1   7
ATOM      7  C   UNL     1      -8.527   4.124  10.420  1.00  0.00     0.265 C 
ATOM      8  N   UNL     1      -7.183   4.406  10.696  1.00  0.00    -0.243 N 
ATOM      9  O   UNL     1      -9.441   4.535  11.117  1.00  0.00    -0.268 OA
ATOM     10  H   UNL     1      -6.490   4.427   9.955  1.00  0.00     0.183 HD
BRANCH   8  11
ATOM     11  S   UNL     1      -6.723   5.314  12.031  1.00  0.00     0.293 S 
ATOM     12  O   UNL     1      -7.306   6.632  11.888  1.00  0.00    -0.199 OA
ATOM     13  O   UNL     1      -7.048   4.486  13.178  1.00  0.00    -0.199 OA
BRANCH  11  14
ATOM     14  C   UNL     1      -4.950   5.473  12.013  1.00  0.00     0.252 A 
ATOM     15  N   UNL     1      -1.423   6.680  11.962  1.00  0.00    -0.184 NA
ATOM     16  C   UNL     1      -2.600   6.144  12.004  1.00  0.00     0.211 A 
ATOM     17  S   UNL     1      -4.106   6.976  12.372  1.00  0.00    -0.062 S 
ATOM     18  N   UNL     1      -2.888   4.808  11.794  1.00  0.00    -0.240 N 
ATOM     19  N   UNL     1      -4.210   4.430  11.736  1.00  0.00    -0.145 NA
ATOM     20  C   UNL     1      -1.915   3.874  11.261  1.00  0.00     0.177 C 
BRANCH  15  21
ATOM     21  C   UNL     1      -1.312   8.032  12.149  1.00  0.00     0.245 C 
ATOM     22  O   UNL     1      -1.336   8.577  13.247  1.00  0.00    -0.273 OA
ATOM     23  C   UNL     1      -1.239   8.820  10.870  1.00  0.00     0.117 C 
ENDBRANCH  15  21
ENDBRANCH  11  14
ENDBRANCH   8  11
ENDBRANCH   1   7
BRANCH   4  24
ATOM     24  N   UNL     1      -9.659   0.946   5.797  1.00  0.00    -0.369 N 
ATOM     25  C   UNL     1      -8.602   0.506   4.868  1.00  0.00     0.132 C 
ATOM     26  C   UNL     1     -11.038   0.893   5.265  1.00  0.00     0.132 C 
ATOM     27  C   UNL     1      -9.137  -0.597   3.926  1.00  0.00     0.106 C 
ATOM     28  C   UNL     1     -11.050   0.903   3.717  1.00  0.00     0.106 C 
ATOM     29  N   UNL     1     -10.252  -0.150   3.055  1.00  0.00    -0.296 NA
BRANCH  29  30
ATOM     30  C   UNL     1     -11.097  -1.286   2.637  1.00  0.00     0.120 C 
BRANCH  30  31
ATOM     31  C   UNL     1     -10.657  -1.934   1.333  1.00  0.00    -0.026 A 
ATOM     32  C   UNL     1      -9.286  -2.200   1.136  1.00  0.00     0.006 A 
ATOM     33  C   UNL     1     -11.567  -2.222   0.288  1.00  0.00    -0.014 A 
ATOM     34  C   UNL     1      -8.824  -2.770  -0.050  1.00  0.00     0.000 A 
ATOM     35  C   UNL     1     -11.078  -2.798  -0.900  1.00  0.00     0.009 A 
ATOM     36  C   UNL     1      -9.720  -3.074  -1.067  1.00  0.00     0.001 A 
BRANCH  33  37
ATOM     37  C   UNL     1     -13.002  -1.928   0.384  1.00  0.00    -0.018 A 
ATOM     38  C   UNL     1     -13.854  -2.769   1.120  1.00  0.00     0.010 A 
ATOM     39  C   UNL     1     -13.550  -0.804  -0.252  1.00  0.00     0.010 A 
ATOM     40  C   UNL     1     -15.222  -2.498   1.209  1.00  0.00     0.021 A 
ATOM     41  C   UNL     1     -14.918  -0.532  -0.165  1.00  0.00     0.021 A 
ATOM     42  C   UNL     1     -15.748  -1.381   0.564  1.00  0.00     0.041 A 
ATOM     43  Cl  UNL     1     -17.434  -1.049   0.666  1.00  0.00    -0.084 Cl
ENDBRANCH  33  37
ENDBRANCH  30  31
ENDBRANCH  29  30
ENDBRANCH   4  24
TORSDOF 8
ENDMDL
MODEL 2
REMARK VINA RESULT:      -7.1     12.636     15.389
REMARK SMILES CC(=O)/N=c1\sc(S(=O)(=O)NC(=O)c2ccc(N3CCN(Cc4ccccc4-c4ccc(Cl)cc4)CC3)cc2)nn1C
REMARK SMILES IDX 14 1 15 2 16 3 17 4 38 5 39 6 12 7 11 8 13 9 8 11 9 12 10 13
REMARK SMILES IDX 7 14 4 15 5 16 6 17 41 18 40 19 42 20 2 21 3 22 1 23 18 24
REMARK SMILES IDX 19 25 37 26 20 27 36 28 21 29 22 30 23 31 24 32 28 33 25 34
REMARK SMILES IDX 27 35 26 36 29 37 30 38 35 39 31 40 34 41 32 42 33 43
REMARK H PARENT 11 10
ROOT
ATOM      1  C   UNL     1      -5.160   7.491  -4.953  1.00  0.00     0.040 A 
ATOM      2  C   UNL     1      -3.777   7.657  -5.060  1.00  0.00     0.016 A 
ATOM      3  C   UNL     1      -3.008   6.735  -5.784  1.00  0.00     0.027 A 
ATOM      4  C   UNL     1      -3.586   5.637  -6.441  1.00  0.00     0.037 A 
ATOM      5  C   UNL     1      -4.976   5.487  -6.300  1.00  0.00     0.027 A 
ATOM      6  C   UNL     1      -5.760   6.394  -5.572  1.00  0.00     0.016 A 
ENDROOT
BRANCH   1   7
ATOM      7  C   UNL     1      -5.938   8.504  -4.192  1.00  0.00     0.265 C 
ATOM      8  N   UNL     1      -5.514   8.732  -2.877  1.00  0.00    -0.243 N 
ATOM      9  O   UNL     1      -6.880   9.098  -4.691  1.00  0.00    -0.268 OA
ATOM     10  H   UNL     1      -4.551   8.570  -2.602  1.00  0.00     0.183 HD
BRANCH   8  11
ATOM     11  S   UNL     1      -6.291   9.830  -1.872  1.00  0.00     0.293 S 
ATOM     12  O   UNL     1      -5.272  10.625  -1.217  1.00  0.00    -0.199 OA
ATOM     13  O   UNL     1      -7.293  10.463  -2.711  1.00  0.00    -0.199 OA
BRANCH  11  14
ATOM     14  C   UNL     1      -7.181   8.916  -0.630  1.00  0.00     0.252 A 
ATOM     15  N   UNL     1      -9.573   6.790   1.282  1.00  0.00    -0.184 NA
ATOM     16  C   UNL     1      -8.669   7.528   0.723  1.00  0.00     0.211 A 
ATOM     17  S   UNL     1      -8.374   7.677  -1.005  1.00  0.00    -0.062 S 
ATOM     18  N   UNL     1      -7.746   8.316   1.385  1.00  0.00    -0.240 N 
ATOM     19  N   UNL     1      -6.945   9.147   0.635  1.00  0.00    -0.145 NA
ATOM     20  C   UNL     1      -7.835   8.597   2.805  1.00  0.00     0.177 C 
BRANCH  15  21
ATOM     21  C   UNL     1     -10.444   6.101   0.481  1.00  0.00     0.245 C 
ATOM     22  O   UNL     1     -10.210   4.996   0.004  1.00  0.00    -0.273 OA
ATOM     23  C   UNL     1     -11.702   6.858   0.155  1.00  0.00     0.117 C 
ENDBRANCH  15  21
ENDBRANCH  11  14
ENDBRANCH   8  11
ENDBRANCH   1   7
BRANCH   4  24
ATOM     24  N   UNL     1      -2.837   4.735  -7.182  1.00  0.00    -0.369 N 
ATOM     25  C   UNL     1      -2.164   5.133  -8.432  1.00  0.00     0.132 C 
ATOM     26  C   UNL     1      -3.040   3.282  -7.000  1.00  0.00     0.132 C 
ATOM     27  C   UNL     1      -1.156   4.044  -8.870  1.00  0.00     0.106 C 
ATOM     28  C   UNL     1      -2.998   2.529  -8.352  1.00  0.00     0.106 C 
ATOM     29  N   UNL     1      -1.785   2.735  -9.171  1.00  0.00    -0.296 NA
BRANCH  29  30
ATOM     30  C   UNL     1      -0.825   1.626  -9.002  1.00  0.00     0.120 C 
BRANCH  30  31
ATOM     31  C   UNL     1      -1.482   0.265  -8.817  1.00  0.00    -0.026 A 
ATOM     32  C   UNL     1      -1.916  -0.109  -7.529  1.00  0.00     0.006 A 
ATOM     33  C   UNL     1      -1.614  -0.659  -9.880  1.00  0.00    -0.014 A 
ATOM     34  C   UNL     1      -2.502  -1.353  -7.297  1.00  0.00     0.000 A 
ATOM     35  C   UNL     1      -2.209  -1.910  -9.623  1.00  0.00     0.009 A 
ATOM     36  C   UNL     1      -2.653  -2.253  -8.345  1.00  0.00     0.001 A 
BRANCH  33  37
ATOM     37  C   UNL     1      -1.140  -0.376 -11.241  1.00  0.00    -0.018 A 
ATOM     38  C   UNL     1      -1.947   0.338 -12.142  1.00  0.00     0.010 A 
ATOM     39  C   UNL     1       0.125  -0.809 -11.665  1.00  0.00     0.010 A 
ATOM     40  C   UNL     1      -1.504   0.604 -13.440  1.00  0.00     0.021 A 
ATOM     41  C   UNL     1       0.570  -0.545 -12.964  1.00  0.00     0.021 A 
ATOM     42  C   UNL     1      -0.247   0.159 -13.846  1.00  0.00     0.041 A 
ATOM     43  Cl  UNL     1       0.297   0.480 -15.446  1.00  0.00    -0.084 Cl
ENDBRANCH  33  37
ENDBRANCH  30  31
ENDBRANCH  29  30
ENDBRANCH   4  24
TORSDOF 8
ENDMDL
MODEL 3
REMARK VINA RESULT:      -7.0     10.102     13.312
REMARK SMILES CC(=O)/N=c1\sc(S(=O)(=O)NC(=O)c2ccc(N3CCN(Cc4ccccc4-c4ccc(Cl)cc4)CC3)cc2)nn1C
REMARK SMILES IDX 14 1 15 2 16 3 17 4 38 5 39 6 12 7 11 8 13 9 8 11 9 12 10 13
REMARK SMILES IDX 7 14 4 15 5 16 6 17 41 18 40 19 42 20 2 21 3 22 1 23 18 24
REMARK SMILES IDX 19 25 37 26 20 27 36 28 21 29 22 30 23 31 24 32 28 33 25 34
REMARK SMILES IDX 27 35 26 36 29 37 30 38 35 39 31 40 34 41 32 42 33 43
REMARK H PARENT 11 10
ROOT
ATOM      1  C   UNL     1     -11.074   6.493   0.107  1.00  0.00     0.040 A 
ATOM      2  C   UNL     1     -10.929   7.441  -0.907  1.00  0.00     0.016 A 
ATOM      3  C   UNL     1      -9.778   7.450  -1.708  1.00  0.00     0.027 A 
ATOM      4  C   UNL     1      -8.750   6.509  -1.544  1.00  0.00     0.037 A 
ATOM      5  C   UNL     1      -8.916   5.579  -0.504  1.00  0.00     0.027 A 
ATOM      6  C   UNL     1     -10.056   5.561   0.313  1.00  0.00     0.016 A 
ENDROOT
BRANCH   1   7
ATOM      7  C   UNL     1     -12.319   6.508   0.919  1.00  0.00     0.265 C 
ATOM      8  N   UNL     1     -12.491   5.422   1.787  1.00  0.00    -0.243 N 
ATOM      9  O   UNL     1     -13.131   7.415   0.834  1.00  0.00    -0.268 OA
ATOM     10  H   UNL     1     -11.693   4.913   2.152  1.00  0.00     0.183 HD
BRANCH   8  11
ATOM     11  S   UNL     1     -13.848   5.272   2.763  1.00  0.00     0.293 S 
ATOM     12  O   UNL     1     -13.719   6.227   3.845  1.00  0.00    -0.199 OA
ATOM     13  O   UNL     1     -14.976   5.341   1.852  1.00  0.00    -0.199 OA
BRANCH  11  14
ATOM     14  C   UNL     1     -13.860   3.631   3.454  1.00  0.00     0.252 A 
ATOM     15  N   UNL     1     -13.153   0.094   4.399  1.00  0.00    -0.184 NA
ATOM     16  C   UNL     1     -13.486   1.324   4.164  1.00  0.00     0.211 A 
ATOM     17  S   UNL     1     -12.478   2.543   3.395  1.00  0.00    -0.062 S 
ATOM     18  N   UNL     1     -14.690   1.913   4.503  1.00  0.00    -0.240 N 
ATOM     19  N   UNL     1     -14.935   3.191   4.055  1.00  0.00    -0.145 NA
ATOM     20  C   UNL     1     -15.834   1.147   4.960  1.00  0.00     0.177 C 
BRANCH  15  21
ATOM     21  C   UNL     1     -11.936  -0.349   3.958  1.00  0.00     0.245 C 
ATOM     22  O   UNL     1     -10.902  -0.279   4.612  1.00  0.00    -0.273 OA
ATOM     23  C   UNL     1     -11.951  -0.866   2.545  1.00  0.00     0.117 C 
ENDBRANCH  15  21
ENDBRANCH  11  14
ENDBRANCH   8  11
ENDBRANCH   1   7
BRANCH   4  24
ATOM     24  N   UNL     1      -7.621   6.493  -2.349  1.00  0.00    -0.369 N 
ATOM     25  C   UNL     1      -6.272   6.697  -1.791  1.00  0.00     0.132 C 
ATOM     26  C   UNL     1      -7.748   6.710  -3.806  1.00  0.00     0.132 C 
ATOM     27  C   UNL     1      -5.194   6.314  -2.833  1.00  0.00     0.106 C 
ATOM     28  C   UNL     1      -6.607   7.604  -4.349  1.00  0.00     0.106 C 
ATOM     29  N   UNL     1      -5.231   7.144  -4.062  1.00  0.00    -0.296 NA
BRANCH  29  30
ATOM     30  C   UNL     1      -4.651   6.425  -5.213  1.00  0.00     0.120 C 
BRANCH  30  31
ATOM     31  C   UNL     1      -3.759   7.289  -6.093  1.00  0.00    -0.026 A 
ATOM     32  C   UNL     1      -4.065   8.659  -6.233  1.00  0.00     0.006 A 
ATOM     33  C   UNL     1      -2.673   6.752  -6.824  1.00  0.00    -0.014 A 
ATOM     34  C   UNL     1      -3.296   9.491  -7.046  1.00  0.00     0.000 A 
ATOM     35  C   UNL     1      -1.910   7.613  -7.639  1.00  0.00     0.009 A 
ATOM     36  C   UNL     1      -2.216   8.970  -7.746  1.00  0.00     0.001 A 
BRANCH  33  37
ATOM     37  C   UNL     1      -2.316   5.329  -6.783  1.00  0.00    -0.018 A 
ATOM     38  C   UNL     1      -2.991   4.401  -7.592  1.00  0.00     0.010 A 
ATOM     39  C   UNL     1      -1.293   4.869  -5.939  1.00  0.00     0.010 A 
ATOM     40  C   UNL     1      -2.660   3.044  -7.551  1.00  0.00     0.021 A 
ATOM     41  C   UNL     1      -0.960   3.512  -5.897  1.00  0.00     0.021 A 
ATOM     42  C   UNL     1      -1.647   2.605  -6.701  1.00  0.00     0.041 A 
ATOM     43  Cl  UNL     1      -1.242   0.934  -6.644  1.00  0.00    -0.084 Cl
ENDBRANCH  33  37
ENDBRANCH  30  31
ENDBRANCH  29  30
ENDBRANCH   4  24
TORSDOF 8
ENDMDL
MODEL 4
REMARK VINA RESULT:      -7.0     26.884     29.257
REMARK SMILES CC(=O)/N=c1\sc(S(=O)(=O)NC(=O)c2ccc(N3CCN(Cc4ccccc4-c4ccc(Cl)cc4)CC3)cc2)nn1C
REMARK SMILES IDX 14 1 15 2 16 3 17 4 38 5 39 6 12 7 11 8 13 9 8 11 9 12 10 13
REMARK SMILES IDX 7 14 4 15 5 16 6 17 41 18 40 19 42 20 2 21 3 22 1 23 18 24
REMARK SMILES IDX 19 25 37 26 20 27 36 28 21 29 22 30 23 31 24 32 28 33 25 34
REMARK SMILES IDX 27 35 26 36 29 37 30 38 35 39 31 40 34 41 32 42 33 43
REMARK H PARENT 11 10
ROOT
ATOM      1  C   UNL     1      -5.367 -23.438  -6.572  1.00  0.00     0.040 A 
ATOM      2  C   UNL     1      -5.572 -23.705  -7.927  1.00  0.00     0.016 A 
ATOM      3  C   UNL     1      -5.190 -22.768  -8.899  1.00  0.00     0.027 A 
ATOM      4  C   UNL     1      -4.575 -21.553  -8.560  1.00  0.00     0.037 A 
ATOM      5  C   UNL     1      -4.398 -21.304  -7.188  1.00  0.00     0.027 A 
ATOM      6  C   UNL     1      -4.782 -22.226  -6.202  1.00  0.00     0.016 A 
ENDROOT
BRANCH   1   7
ATOM      7  C   UNL     1      -5.768 -24.467  -5.578  1.00  0.00     0.265 C 
ATOM      8  N   UNL     1      -4.722 -25.215  -5.022  1.00  0.00    -0.243 N 
ATOM      9  O   UNL     1      -6.936 -24.640  -5.267  1.00  0.00    -0.268 OA
ATOM     10  H   UNL     1      -3.784 -24.834  -4.958  1.00  0.00     0.183 HD
BRANCH   8  11
ATOM     11  S   UNL     1      -5.000 -26.429  -3.898  1.00  0.00     0.293 S 
ATOM     12  O   UNL     1      -6.430 -26.507  -3.679  1.00  0.00    -0.199 OA
ATOM     13  O   UNL     1      -4.268 -27.579  -4.397  1.00  0.00    -0.199 OA
BRANCH  11  14
ATOM     14  C   UNL     1      -4.218 -25.962  -2.368  1.00  0.00     0.252 A 
ATOM     15  N   UNL     1      -2.886 -24.173   0.620  1.00  0.00    -0.184 NA
ATOM     16  C   UNL     1      -3.316 -24.904  -0.359  1.00  0.00     0.211 A 
ATOM     17  S   UNL     1      -4.537 -24.443  -1.538  1.00  0.00    -0.062 S 
ATOM     18  N   UNL     1      -2.913 -26.196  -0.640  1.00  0.00    -0.240 N 
ATOM     19  N   UNL     1      -3.367 -26.779  -1.801  1.00  0.00    -0.145 NA
ATOM     20  C   UNL     1      -1.768 -26.814   0.000  1.00  0.00     0.177 C 
BRANCH  15  21
ATOM     21  C   UNL     1      -3.354 -22.892   0.735  1.00  0.00     0.245 C 
ATOM     22  O   UNL     1      -2.973 -21.957   0.039  1.00  0.00    -0.273 OA
ATOM     23  C   UNL     1      -4.331 -22.699   1.863  1.00  0.00     0.117 C 
ENDBRANCH  15  21
ENDBRANCH  11  14
ENDBRANCH   8  11
ENDBRANCH   1   7
BRANCH   4  24
ATOM     24  N   UNL     1      -4.170 -20.633  -9.515  1.00  0.00    -0.369 N 
ATOM     25  C   UNL     1      -5.030 -19.504  -9.913  1.00  0.00     0.132 C 
ATOM     26  C   UNL     1      -3.090 -20.979 -10.463  1.00  0.00     0.132 C 
ATOM     27  C   UNL     1      -4.220 -18.474 -10.736  1.00  0.00     0.106 C 
ATOM     28  C   UNL     1      -3.400 -20.462 -11.889  1.00  0.00     0.106 C 
ATOM     29  N   UNL     1      -3.682 -19.015 -12.008  1.00  0.00    -0.296 NA
BRANCH  29  30
ATOM     30  C   UNL     1      -2.488 -18.267 -12.448  1.00  0.00     0.120 C 
BRANCH  30  31
ATOM     31  C   UNL     1      -2.802 -17.078 -13.344  1.00  0.00    -0.026 A 
ATOM     32  C   UNL     1      -4.132 -16.881 -13.769  1.00  0.00     0.006 A 
ATOM     33  C   UNL     1      -1.796 -16.202 -13.816  1.00  0.00    -0.014 A 
ATOM     34  C   UNL     1      -4.472 -15.822 -14.611  1.00  0.00     0.000 A 
ATOM     35  C   UNL     1      -2.163 -15.139 -14.664  1.00  0.00     0.009 A 
ATOM     36  C   UNL     1      -3.489 -14.948 -15.055  1.00  0.00     0.001 A 
BRANCH  33  37
ATOM     37  C   UNL     1      -0.378 -16.363 -13.470  1.00  0.00    -0.018 A 
ATOM     38  C   UNL     1       0.527 -16.894 -14.404  1.00  0.00     0.010 A 
ATOM     39  C   UNL     1       0.100 -15.990 -12.205  1.00  0.00     0.010 A 
ATOM     40  C   UNL     1       1.876 -17.056 -14.077  1.00  0.00     0.021 A 
ATOM     41  C   UNL     1       1.449 -16.152 -11.876  1.00  0.00     0.021 A 
ATOM     42  C   UNL     1       2.330 -16.687 -12.813  1.00  0.00     0.041 A 
ATOM     43  Cl  UNL     1       3.990 -16.892 -12.406  1.00  0.00    -0.084 Cl
ENDBRANCH  33  37
ENDBRANCH  30  31
ENDBRANCH  29  30
ENDBRANCH   4  24
TORSDOF 8
ENDMDL
MODEL 5
REMARK VINA RESULT:      -6.9      2.541      3.555
REMARK SMILES CC(=O)/N=c1\sc(S(=O)(=O)NC(=O)c2ccc(N3CCN(Cc4ccccc4-c4ccc(Cl)cc4)CC3)cc2)nn1C
REMARK SMILES IDX 14 1 15 2 16 3 17 4 38 5 39 6 12 7 11 8 13 9 8 11 9 12 10 13
REMARK SMILES IDX 7 14 4 15 5 16 6 17 41 18 40 19 42 20 2 21 3 22 1 23 18 24
REMARK SMILES IDX 19 25 37 26 20 27 36 28 21 29 22 30 23 31 24 32 28 33 25 34
REMARK SMILES IDX 27 35 26 36 29 37 30 38 35 39 31 40 34 41 32 42 33 43
REMARK H PARENT 11 10
ROOT
ATOM      1  C   UNL     1      -8.900   2.730  11.209  1.00  0.00     0.040 A 
ATOM      2  C   UNL     1      -9.900   3.372  10.477  1.00  0.00     0.016 A 
ATOM      3  C   UNL     1     -10.213   2.944   9.179  1.00  0.00     0.027 A 
ATOM      4  C   UNL     1      -9.562   1.856   8.577  1.00  0.00     0.037 A 
ATOM      5  C   UNL     1      -8.548   1.241   9.331  1.00  0.00     0.027 A 
ATOM      6  C   UNL     1      -8.216   1.661  10.627  1.00  0.00     0.016 A 
ENDROOT
BRANCH   1   7
ATOM      7  C   UNL     1      -8.616   3.204  12.589  1.00  0.00     0.265 C 
ATOM      8  N   UNL     1      -7.722   4.278  12.689  1.00  0.00    -0.243 N 
ATOM      9  O   UNL     1      -9.137   2.689  13.566  1.00  0.00    -0.268 OA
ATOM     10  H   UNL     1      -7.612   4.939  11.929  1.00  0.00     0.183 HD
BRANCH   8  11
ATOM     11  S   UNL     1      -7.278   4.926  14.173  1.00  0.00     0.293 S 
ATOM     12  O   UNL     1      -8.456   5.530  14.760  1.00  0.00    -0.199 OA
ATOM     13  O   UNL     1      -6.581   3.853  14.858  1.00  0.00    -0.199 OA
BRANCH  11  14
ATOM     14  C   UNL     1      -6.071   6.203  13.884  1.00  0.00     0.252 A 
ATOM     15  N   UNL     1      -3.077   8.206  12.921  1.00  0.00    -0.184 NA
ATOM     16  C   UNL     1      -4.175   7.621  13.281  1.00  0.00     0.211 A 
ATOM     17  S   UNL     1      -4.714   6.024  12.777  1.00  0.00    -0.062 S 
ATOM     18  N   UNL     1      -5.143   8.160  14.108  1.00  0.00    -0.240 N 
ATOM     19  N   UNL     1      -6.183   7.349  14.503  1.00  0.00    -0.145 NA
ATOM     20  C   UNL     1      -4.929   9.374  14.873  1.00  0.00     0.177 C 
BRANCH  15  21
ATOM     21  C   UNL     1      -2.198   7.516  12.130  1.00  0.00     0.245 C 
ATOM     22  O   UNL     1      -1.321   6.776  12.562  1.00  0.00    -0.273 OA
ATOM     23  C   UNL     1      -2.341   7.809  10.661  1.00  0.00     0.117 C 
ENDBRANCH  15  21
ENDBRANCH  11  14
ENDBRANCH   8  11
ENDBRANCH   1   7
BRANCH   4  24
ATOM     24  N   UNL     1      -9.883   1.409   7.304  1.00  0.00    -0.369 N 
ATOM     25  C   UNL     1      -8.844   1.171   6.285  1.00  0.00     0.132 C 
ATOM     26  C   UNL     1     -11.258   1.572   6.788  1.00  0.00     0.132 C 
ATOM     27  C   UNL     1      -9.433   0.384   5.090  1.00  0.00     0.106 C 
ATOM     28  C   UNL     1     -11.260   1.988   5.297  1.00  0.00     0.106 C 
ATOM     29  N   UNL     1     -10.516   1.104   4.376  1.00  0.00    -0.296 NA
BRANCH  29  30
ATOM     30  C   UNL     1     -11.419   0.165   3.682  1.00  0.00     0.120 C 
BRANCH  30  31
ATOM     31  C   UNL     1     -11.971   0.699   2.368  1.00  0.00    -0.026 A 
ATOM     32  C   UNL     1     -12.505   2.003   2.336  1.00  0.00     0.006 A 
ATOM     33  C   UNL     1     -12.023  -0.091   1.195  1.00  0.00    -0.014 A 
ATOM     34  C   UNL     1     -13.047   2.533   1.166  1.00  0.00     0.000 A 
ATOM     35  C   UNL     1     -12.575   0.465   0.024  1.00  0.00     0.009 A 
ATOM     36  C   UNL     1     -13.078   1.767   0.008  1.00  0.00     0.001 A 
BRANCH  33  37
ATOM     37  C   UNL     1     -11.541  -1.478   1.150  1.00  0.00    -0.018 A 
ATOM     38  C   UNL     1     -10.197  -1.755   0.853  1.00  0.00     0.010 A 
ATOM     39  C   UNL     1     -12.410  -2.549   1.407  1.00  0.00     0.010 A 
ATOM     40  C   UNL     1      -9.735  -3.073   0.802  1.00  0.00     0.021 A 
ATOM     41  C   UNL     1     -11.950  -3.868   1.357  1.00  0.00     0.021 A 
ATOM     42  C   UNL     1     -10.615  -4.124   1.052  1.00  0.00     0.041 A 
ATOM     43  Cl  UNL     1     -10.049  -5.748   0.984  1.00  0.00    -0.084 Cl
ENDBRANCH  33  37
ENDBRANCH  30  31
ENDBRANCH  29  30
ENDBRANCH   4  24
TORSDOF 8
ENDMDL
MODEL 6
REMARK VINA RESULT:      -6.9     10.794     12.589
REMARK SMILES CC(=O)/N=c1\sc(S(=O)(=O)NC(=O)c2ccc(N3CCN(Cc4ccccc4-c4ccc(Cl)cc4)CC3)cc2)nn1C
REMARK SMILES IDX 14 1 15 2 16 3 17 4 38 5 39 6 12 7 11 8 13 9 8 11 9 12 10 13
REMARK SMILES IDX 7 14 4 15 5 16 6 17 41 18 40 19 42 20 2 21 3 22 1 23 18 24
REMARK SMILES IDX 19 25 37 26 20 27 36 28 21 29 22 30 23 31 24 32 28 33 25 34
REMARK SMILES IDX 27 35 26 36 29 37 30 38 35 39 31 40 34 41 32 42 33 43
REMARK H PARENT 11 10
ROOT
ATOM      1  C   UNL     1      -9.580   7.827   0.605  1.00  0.00     0.040 A 
ATOM      2  C   UNL     1      -9.942   7.576  -0.720  1.00  0.00     0.016 A 
ATOM      3  C   UNL     1      -8.965   7.531  -1.725  1.00  0.00     0.027 A 
ATOM      4  C   UNL     1      -7.602   7.712  -1.445  1.00  0.00     0.037 A 
ATOM      5  C   UNL     1      -7.270   7.982  -0.107  1.00  0.00     0.027 A 
ATOM      6  C   UNL     1      -8.235   8.039   0.910  1.00  0.00     0.016 A 
ENDROOT
BRANCH   1   7
ATOM      7  C   UNL     1     -10.646   7.845   1.640  1.00  0.00     0.265 C 
ATOM      8  N   UNL     1     -10.334   7.200   2.844  1.00  0.00    -0.243 N 
ATOM      9  O   UNL     1     -11.719   8.394   1.449  1.00  0.00    -0.268 OA
ATOM     10  H   UNL     1      -9.373   7.109   3.154  1.00  0.00     0.183 HD
BRANCH   8  11
ATOM     11  S   UNL     1     -11.429   7.111   4.113  1.00  0.00     0.293 S 
ATOM     12  O   UNL     1     -12.720   6.759   3.556  1.00  0.00    -0.199 OA
ATOM     13  O   UNL     1     -10.795   6.254   5.098  1.00  0.00    -0.199 OA
BRANCH  11  14
ATOM     14  C   UNL     1     -11.553   8.724   4.856  1.00  0.00     0.252 A 
ATOM     15  N   UNL     1     -11.096  11.828   6.869  1.00  0.00    -0.184 NA
ATOM     16  C   UNL     1     -11.341  10.815   6.101  1.00  0.00     0.211 A 
ATOM     17  S   UNL     1     -10.255   9.469   5.783  1.00  0.00    -0.062 S 
ATOM     18  N   UNL     1     -12.495  10.620   5.364  1.00  0.00    -0.240 N 
ATOM     19  N   UNL     1     -12.651   9.420   4.709  1.00  0.00    -0.145 NA
ATOM     20  C   UNL     1     -13.686  11.426   5.551  1.00  0.00     0.177 C 
BRANCH  15  21
ATOM     21  C   UNL     1      -9.920  11.850   7.569  1.00  0.00     0.245 C 
ATOM     22  O   UNL     1      -9.746  11.275   8.637  1.00  0.00    -0.273 OA
ATOM     23  C   UNL     1      -8.860  12.723   6.952  1.00  0.00     0.117 C 
ENDBRANCH  15  21
ENDBRANCH  11  14
ENDBRANCH   8  11
ENDBRANCH   1   7
BRANCH   4  24
ATOM     24  N   UNL     1      -6.626   7.644  -2.428  1.00  0.00    -0.369 N 
ATOM     25  C   UNL     1      -6.567   8.624  -3.528  1.00  0.00     0.132 C 
ATOM     26  C   UNL     1      -5.900   6.377  -2.662  1.00  0.00     0.132 C 
ATOM     27  C   UNL     1      -5.219   8.510  -4.279  1.00  0.00     0.106 C 
ATOM     28  C   UNL     1      -5.685   6.117  -4.173  1.00  0.00     0.106 C 
ATOM     29  N   UNL     1      -5.006   7.192  -4.926  1.00  0.00    -0.296 NA
BRANCH  29  30
ATOM     30  C   UNL     1      -3.569   6.904  -5.099  1.00  0.00     0.120 C 
BRANCH  30  31
ATOM     31  C   UNL     1      -2.985   7.440  -6.399  1.00  0.00    -0.026 A 
ATOM     32  C   UNL     1      -3.223   8.786  -6.746  1.00  0.00     0.006 A 
ATOM     33  C   UNL     1      -2.267   6.618  -7.299  1.00  0.00    -0.014 A 
ATOM     34  C   UNL     1      -2.734   9.322  -7.937  1.00  0.00     0.000 A 
ATOM     35  C   UNL     1      -1.781   7.181  -8.495  1.00  0.00     0.009 A 
ATOM     36  C   UNL     1      -2.008   8.522  -8.810  1.00  0.00     0.001 A 
BRANCH  33  37
ATOM     37  C   UNL     1      -2.019   5.193  -7.046  1.00  0.00    -0.018 A 
ATOM     38  C   UNL     1      -0.911   4.786  -6.284  1.00  0.00     0.010 A 
ATOM     39  C   UNL     1      -2.883   4.212  -7.555  1.00  0.00     0.010 A 
ATOM     40  C   UNL     1      -0.667   3.431  -6.046  1.00  0.00     0.021 A 
ATOM     41  C   UNL     1      -2.641   2.855  -7.318  1.00  0.00     0.021 A 
ATOM     42  C   UNL     1      -1.532   2.471  -6.566  1.00  0.00     0.041 A 
ATOM     43  Cl  UNL     1      -1.230   0.802  -6.280  1.00  0.00    -0.084 Cl
ENDBRANCH  33  37
ENDBRANCH  30  31
ENDBRANCH  29  30
ENDBRANCH   4  24
TORSDOF 8
ENDMDL
MODEL 7
REMARK VINA RESULT:      -6.8     11.939     14.709
REMARK SMILES CC(=O)/N=c1\sc(S(=O)(=O)NC(=O)c2ccc(N3CCN(Cc4ccccc4-c4ccc(Cl)cc4)CC3)cc2)nn1C
REMARK SMILES IDX 14 1 15 2 16 3 17 4 38 5 39 6 12 7 11 8 13 9 8 11 9 12 10 13
REMARK SMILES IDX 7 14 4 15 5 16 6 17 41 18 40 19 42 20 2 21 3 22 1 23 18 24
REMARK SMILES IDX 19 25 37 26 20 27 36 28 21 29 22 30 23 31 24 32 28 33 25 34
REMARK SMILES IDX 27 35 26 36 29 37 30 38 35 39 31 40 34 41 32 42 33 43
REMARK H PARENT 11 10
ROOT
ATOM      1  C   UNL     1      -5.461   7.691  -5.092  1.00  0.00     0.040 A 
ATOM      2  C   UNL     1      -4.123   7.958  -5.387  1.00  0.00     0.016 A 
ATOM      3  C   UNL     1      -3.402   7.107  -6.237  1.00  0.00     0.027 A 
ATOM      4  C   UNL     1      -3.989   5.982  -6.836  1.00  0.00     0.037 A 
ATOM      5  C   UNL     1      -5.331   5.728  -6.505  1.00  0.00     0.027 A 
ATOM      6  C   UNL     1      -6.065   6.563  -5.650  1.00  0.00     0.016 A 
ENDROOT
BRANCH   1   7
ATOM      7  C   UNL     1      -6.192   8.631  -4.202  1.00  0.00     0.265 C 
ATOM      8  N   UNL     1      -5.716   8.717  -2.888  1.00  0.00    -0.243 N 
ATOM      9  O   UNL     1      -7.142   9.286  -4.601  1.00  0.00    -0.268 OA
ATOM     10  H   UNL     1      -4.746   8.514  -2.669  1.00  0.00     0.183 HD
BRANCH   8  11
ATOM     11  S   UNL     1      -6.435   9.717  -1.748  1.00  0.00     0.293 S 
ATOM     12  O   UNL     1      -5.380  10.299  -0.944  1.00  0.00    -0.199 OA
ATOM     13  O   UNL     1      -7.336  10.565  -2.506  1.00  0.00    -0.199 OA
BRANCH  11  14
ATOM     14  C   UNL     1      -7.461   8.713  -0.694  1.00  0.00     0.252 A 
ATOM     15  N   UNL     1      -9.376   7.211   2.131  1.00  0.00    -0.184 NA
ATOM     16  C   UNL     1      -8.773   7.651   1.073  1.00  0.00     0.211 A 
ATOM     17  S   UNL     1      -8.060   9.246   0.873  1.00  0.00    -0.062 S 
ATOM     18  N   UNL     1      -8.603   6.954  -0.109  1.00  0.00    -0.240 N 
ATOM     19  N   UNL     1      -7.815   7.516  -1.087  1.00  0.00    -0.145 NA
ATOM     20  C   UNL     1      -8.881   5.535  -0.225  1.00  0.00     0.177 C 
BRANCH  15  21
ATOM     21  C   UNL     1      -9.420   8.012   3.240  1.00  0.00     0.245 C 
ATOM     22  O   UNL     1     -10.259   8.889   3.420  1.00  0.00    -0.273 OA
ATOM     23  C   UNL     1      -8.286   7.785   4.202  1.00  0.00     0.117 C 
ENDBRANCH  15  21
ENDBRANCH  11  14
ENDBRANCH   8  11
ENDBRANCH   1   7
BRANCH   4  24
ATOM     24  N   UNL     1      -3.292   5.149  -7.699  1.00  0.00    -0.369 N 
ATOM     25  C   UNL     1      -3.249   5.403  -9.150  1.00  0.00     0.132 C 
ATOM     26  C   UNL     1      -2.947   3.774  -7.280  1.00  0.00     0.132 C 
ATOM     27  C   UNL     1      -2.160   4.530  -9.818  1.00  0.00     0.106 C 
ATOM     28  C   UNL     1      -3.131   2.765  -8.439  1.00  0.00     0.106 C 
ATOM     29  N   UNL     1      -2.402   3.071  -9.689  1.00  0.00    -0.296 NA
BRANCH  29  30
ATOM     30  C   UNL     1      -1.143   2.308  -9.780  1.00  0.00     0.120 C 
BRANCH  30  31
ATOM     31  C   UNL     1      -1.338   0.833 -10.102  1.00  0.00    -0.026 A 
ATOM     32  C   UNL     1      -1.683   0.466 -11.419  1.00  0.00     0.006 A 
ATOM     33  C   UNL     1      -1.247  -0.174  -9.112  1.00  0.00    -0.014 A 
ATOM     34  C   UNL     1      -1.898  -0.868 -11.764  1.00  0.00     0.000 A 
ATOM     35  C   UNL     1      -1.468  -1.515  -9.484  1.00  0.00     0.009 A 
ATOM     36  C   UNL     1      -1.786  -1.860 -10.798  1.00  0.00     0.001 A 
BRANCH  33  37
ATOM     37  C   UNL     1      -0.948   0.122  -7.705  1.00  0.00    -0.018 A 
ATOM     38  C   UNL     1       0.230   0.803  -7.355  1.00  0.00     0.010 A 
ATOM     39  C   UNL     1      -1.831  -0.266  -6.686  1.00  0.00     0.010 A 
ATOM     40  C   UNL     1       0.522   1.081  -6.018  1.00  0.00     0.021 A 
ATOM     41  C   UNL     1      -1.540   0.011  -5.347  1.00  0.00     0.021 A 
ATOM     42  C   UNL     1      -0.363   0.681  -5.019  1.00  0.00     0.041 A 
ATOM     43  Cl  UNL     1      -0.001   1.016  -3.370  1.00  0.00    -0.084 Cl
ENDBRANCH  33  37
ENDBRANCH  30  31
ENDBRANCH  29  30
ENDBRANCH   4  24
TORSDOF 8
ENDMDL
MODEL 8
REMARK VINA RESULT:      -6.8     26.767     29.111
REMARK SMILES CC(=O)/N=c1\sc(S(=O)(=O)NC(=O)c2ccc(N3CCN(Cc4ccccc4-c4ccc(Cl)cc4)CC3)cc2)nn1C
REMARK SMILES IDX 14 1 15 2 16 3 17 4 38 5 39 6 12 7 11 8 13 9 8 11 9 12 10 13
REMARK SMILES IDX 7 14 4 15 5 16 6 17 41 18 40 19 42 20 2 21 3 22 1 23 18 24
REMARK SMILES IDX 19 25 37 26 20 27 36 28 21 29 22 30 23 31 24 32 28 33 25 34
REMARK SMILES IDX 27 35 26 36 29 37 30 38 35 39 31 40 34 41 32 42 33 43
REMARK H PARENT 11 10
ROOT
ATOM      1  C   UNL     1      -5.154 -23.182  -6.762  1.00  0.00     0.040 A 
ATOM      2  C   UNL     1      -5.257 -23.792  -8.013  1.00  0.00     0.016 A 
ATOM      3  C   UNL     1      -4.667 -23.200  -9.140  1.00  0.00     0.027 A 
ATOM      4  C   UNL     1      -3.941 -22.002  -9.056  1.00  0.00     0.037 A 
ATOM      5  C   UNL     1      -3.870 -21.402  -7.787  1.00  0.00     0.027 A 
ATOM      6  C   UNL     1      -4.462 -21.976  -6.651  1.00  0.00     0.016 A 
ENDROOT
BRANCH   1   7
ATOM      7  C   UNL     1      -5.777 -23.855  -5.592  1.00  0.00     0.265 C 
ATOM      8  N   UNL     1      -5.287 -25.134  -5.296  1.00  0.00    -0.243 N 
ATOM      9  O   UNL     1      -6.655 -23.319  -4.934  1.00  0.00    -0.268 OA
ATOM     10  H   UNL     1      -4.344 -25.404  -5.551  1.00  0.00     0.183 HD
BRANCH   8  11
ATOM     11  S   UNL     1      -5.892 -26.041  -4.019  1.00  0.00     0.293 S 
ATOM     12  O   UNL     1      -7.224 -25.553  -3.724  1.00  0.00    -0.199 OA
ATOM     13  O   UNL     1      -5.684 -27.424  -4.409  1.00  0.00    -0.199 OA
BRANCH  11  14
ATOM     14  C   UNL     1      -4.858 -25.760  -2.597  1.00  0.00     0.252 A 
ATOM     15  N   UNL     1      -2.988 -24.332   0.296  1.00  0.00    -0.184 NA
ATOM     16  C   UNL     1      -3.602 -24.943  -0.666  1.00  0.00     0.211 A 
ATOM     17  S   UNL     1      -4.967 -24.322  -1.587  1.00  0.00    -0.062 S 
ATOM     18  N   UNL     1      -3.315 -26.214  -1.129  1.00  0.00    -0.240 N 
ATOM     19  N   UNL     1      -3.974 -26.659  -2.253  1.00  0.00    -0.145 NA
ATOM     20  C   UNL     1      -2.117 -26.934  -0.741  1.00  0.00     0.177 C 
BRANCH  15  21
ATOM     21  C   UNL     1      -3.366 -23.053   0.605  1.00  0.00     0.245 C 
ATOM     22  O   UNL     1      -2.971 -22.057   0.009  1.00  0.00    -0.273 OA
ATOM     23  C   UNL     1      -4.259 -22.956   1.812  1.00  0.00     0.117 C 
ENDBRANCH  15  21
ENDBRANCH  11  14
ENDBRANCH   8  11
ENDBRANCH   1   7
BRANCH   4  24
ATOM     24  N   UNL     1      -3.331 -21.423 -10.159  1.00  0.00    -0.369 N 
ATOM     25  C   UNL     1      -2.101 -21.985 -10.746  1.00  0.00     0.132 C 
ATOM     26  C   UNL     1      -3.621 -20.016 -10.509  1.00  0.00     0.132 C 
ATOM     27  C   UNL     1      -1.826 -21.351 -12.129  1.00  0.00     0.106 C 
ATOM     28  C   UNL     1      -2.342 -19.270 -10.963  1.00  0.00     0.106 C 
ATOM     29  N   UNL     1      -1.593 -19.886 -12.079  1.00  0.00    -0.296 NA
BRANCH  29  30
ATOM     30  C   UNL     1      -1.921 -19.245 -13.368  1.00  0.00     0.120 C 
BRANCH  30  31
ATOM     31  C   UNL     1      -1.250 -17.895 -13.572  1.00  0.00    -0.026 A 
ATOM     32  C   UNL     1       0.151 -17.806 -13.441  1.00  0.00     0.006 A 
ATOM     33  C   UNL     1      -1.989 -16.715 -13.828  1.00  0.00    -0.014 A 
ATOM     34  C   UNL     1       0.816 -16.589 -13.593  1.00  0.00     0.000 A 
ATOM     35  C   UNL     1      -1.297 -15.498 -13.979  1.00  0.00     0.009 A 
ATOM     36  C   UNL     1       0.093 -15.436 -13.867  1.00  0.00     0.001 A 
BRANCH  33  37
ATOM     37  C   UNL     1      -3.454 -16.704 -13.926  1.00  0.00    -0.018 A 
ATOM     38  C   UNL     1      -4.247 -16.722 -12.766  1.00  0.00     0.010 A 
ATOM     39  C   UNL     1      -4.090 -16.672 -15.176  1.00  0.00     0.010 A 
ATOM     40  C   UNL     1      -5.641 -16.718 -12.854  1.00  0.00     0.021 A 
ATOM     41  C   UNL     1      -5.486 -16.669 -15.266  1.00  0.00     0.021 A 
ATOM     42  C   UNL     1      -6.254 -16.694 -14.105  1.00  0.00     0.041 A 
ATOM     43  Cl  UNL     1      -7.972 -16.696 -14.215  1.00  0.00    -0.084 Cl
ENDBRANCH  33  37
ENDBRANCH  30  31
ENDBRANCH  29  30
ENDBRANCH   4  24
TORSDOF 8
ENDMDL
MODEL 9
REMARK VINA RESULT:      -6.7      6.694     14.125
REMARK SMILES CC(=O)/N=c1\sc(S(=O)(=O)NC(=O)c2ccc(N3CCN(Cc4ccccc4-c4ccc(Cl)cc4)CC3)cc2)nn1C
REMARK SMILES IDX 14 1 15 2 16 3 17 4 38 5 39 6 12 7 11 8 13 9 8 11 9 12 10 13
REMARK SMILES IDX 7 14 4 15 5 16 6 17 41 18 40 19 42 20 2 21 3 22 1 23 18 24
REMARK SMILES IDX 19 25 37 26 20 27 36 28 21 29 22 30 23 31 24 32 28 33 25 34
REMARK SMILES IDX 27 35 26 36 29 37 30 38 35 39 31 40 34 41 32 42 33 43
REMARK H PARENT 11 10
ROOT
ATOM      1  C   UNL     1      -9.879   2.730   7.052  1.00  0.00     0.040 A 
ATOM      2  C   UNL     1     -10.417   3.789   7.785  1.00  0.00     0.016 A 
ATOM      3  C   UNL     1      -9.681   4.378   8.823  1.00  0.00     0.027 A 
ATOM      4  C   UNL     1      -8.384   3.952   9.149  1.00  0.00     0.037 A 
ATOM      5  C   UNL     1      -7.876   2.872   8.406  1.00  0.00     0.027 A 
ATOM      6  C   UNL     1      -8.603   2.266   7.371  1.00  0.00     0.016 A 
ENDROOT
BRANCH   1   7
ATOM      7  C   UNL     1     -10.688   2.150   5.947  1.00  0.00     0.265 C 
ATOM      8  N   UNL     1     -11.234   3.072   5.046  1.00  0.00    -0.243 N 
ATOM      9  O   UNL     1     -10.854   0.946   5.837  1.00  0.00    -0.268 OA
ATOM     10  H   UNL     1     -10.796   3.973   4.890  1.00  0.00     0.183 HD
BRANCH   8  11
ATOM     11  S   UNL     1     -12.187   2.589   3.751  1.00  0.00     0.293 S 
ATOM     12  O   UNL     1     -11.388   1.713   2.919  1.00  0.00    -0.199 OA
ATOM     13  O   UNL     1     -13.421   2.112   4.350  1.00  0.00    -0.199 OA
BRANCH  11  14
ATOM     14  C   UNL     1     -12.615   4.034   2.804  1.00  0.00     0.252 A 
ATOM     15  N   UNL     1     -12.630   7.202   0.838  1.00  0.00    -0.184 NA
ATOM     16  C   UNL     1     -12.748   6.089   1.488  1.00  0.00     0.211 A 
ATOM     17  S   UNL     1     -11.444   4.981   1.893  1.00  0.00    -0.062 S 
ATOM     18  N   UNL     1     -13.931   5.550   1.959  1.00  0.00    -0.240 N 
ATOM     19  N   UNL     1     -13.862   4.427   2.753  1.00  0.00    -0.145 NA
ATOM     20  C   UNL     1     -15.174   6.298   1.987  1.00  0.00     0.177 C 
BRANCH  15  21
ATOM     21  C   UNL     1     -11.377   7.620   0.478  1.00  0.00     0.245 C 
ATOM     22  O   UNL     1     -10.633   8.264   1.209  1.00  0.00    -0.273 OA
ATOM     23  C   UNL     1     -11.010   7.293  -0.944  1.00  0.00     0.117 C 
ENDBRANCH  15  21
ENDBRANCH  11  14
ENDBRANCH   8  11
ENDBRANCH   1   7
BRANCH   4  24
ATOM     24  N   UNL     1      -7.637   4.545  10.156  1.00  0.00    -0.369 N 
ATOM     25  C   UNL     1      -6.526   3.834  10.815  1.00  0.00     0.132 C 
ATOM     26  C   UNL     1      -8.182   5.704  10.895  1.00  0.00     0.132 C 
ATOM     27  C   UNL     1      -5.677   4.820  11.652  1.00  0.00     0.106 C 
ATOM     28  C   UNL     1      -7.857   5.616  12.406  1.00  0.00     0.106 C 
ATOM     29  N   UNL     1      -6.428   5.468  12.755  1.00  0.00    -0.296 NA
BRANCH  29  30
ATOM     30  C   UNL     1      -5.826   6.763  13.127  1.00  0.00     0.120 C 
BRANCH  30  31
ATOM     31  C   UNL     1      -5.211   6.779  14.519  1.00  0.00    -0.026 A 
ATOM     32  C   UNL     1      -6.052   6.596  15.635  1.00  0.00     0.006 A 
ATOM     33  C   UNL     1      -3.835   7.034  14.733  1.00  0.00    -0.014 A 
ATOM     34  C   UNL     1      -5.546   6.626  16.934  1.00  0.00     0.000 A 
ATOM     35  C   UNL     1      -3.346   7.059  16.054  1.00  0.00     0.009 A 
ATOM     36  C   UNL     1      -4.192   6.853  17.145  1.00  0.00     0.001 A 
BRANCH  33  37
ATOM     37  C   UNL     1      -2.896   7.291  13.634  1.00  0.00    -0.018 A 
ATOM     38  C   UNL     1      -2.368   6.226  12.885  1.00  0.00     0.010 A 
ATOM     39  C   UNL     1      -2.511   8.600  13.309  1.00  0.00     0.010 A 
ATOM     40  C   UNL     1      -1.469   6.464  11.842  1.00  0.00     0.021 A 
ATOM     41  C   UNL     1      -1.611   8.840  12.267  1.00  0.00     0.021 A 
ATOM     42  C   UNL     1      -1.092   7.771  11.540  1.00  0.00     0.041 A 
ATOM     43  Cl  UNL     1       0.021   8.066  10.261  1.00  0.00    -0.084 Cl
ENDBRANCH  33  37
ENDBRANCH  30  31
ENDBRANCH  29  30
ENDBRANCH   4  24
TORSDOF 8
ENDMDL
