MODEL 1
REMARK minimizedAffinity -8.53479099
REMARK CNNscore 0.686252952
REMARK CNNaffinity 7.80342245
REMARK SMILES Brc1cccc(COc2ccc([C@H]3C[C@@H]3NCCC3CCCCC3)cc2)c1
REMARK SMILES IDX 9 1 10 2 11 3 12 4 25 5 26 6 8 7 7 8 6 9 2 10 3 11 27 12
REMARK SMILES IDX 4 13 5 14 1 15 13 16 14 17 15 18 16 19 17 21 18 22 19 23
REMARK SMILES IDX 20 24 24 25 21 26 23 27 22 28
REMARK H PARENT 16 20
ROOT
ATOM      1  C   UNL     1      52.078 157.239  29.038  1.00  0.00     0.119 A 
ATOM      2  C   UNL     1      51.671 155.906  29.045  1.00  0.00     0.047 A 
ATOM      3  C   UNL     1      52.055 155.036  28.019  1.00  0.00     0.008 A 
ATOM      4  C   UNL     1      52.844 155.478  26.946  1.00  0.00    -0.043 A 
ATOM      5  C   UNL     1      53.249 156.824  26.959  1.00  0.00     0.008 A 
ATOM      6  C   UNL     1      52.872 157.698  27.989  1.00  0.00     0.047 A 
ENDROOT
BRANCH   1   7
ATOM      7  O   UNL     1      51.628 157.976  30.097  1.00  0.00    -0.489 OA
BRANCH   7   8
ATOM      8  C   UNL     1      51.941 159.367  30.099  1.00  0.00     0.265 C 
BRANCH   8   9
ATOM      9  C   UNL     1      50.901 160.074  30.934  1.00  0.00    -0.010 A 
ATOM     10  C   UNL     1      48.595 160.325  31.645  1.00  0.00     0.018 A 
ATOM     11  C   UNL     1      48.960 161.359  32.506  1.00  0.00     0.016 A 
ATOM     12  C   UNL     1      49.555 159.681  30.864  1.00  0.00     0.023 A 
ATOM     13  C   UNL     1      50.296 161.749  32.590  1.00  0.00     0.002 A 
ATOM     14  C   UNL     1      51.263 161.107  31.810  1.00  0.00     0.007 A 
ATOM     15  Br  UNL     1      46.785 159.792  31.535  1.00  0.00    -0.051 Br
ENDBRANCH   8   9
ENDBRANCH   7   8
ENDBRANCH   1   7
BRANCH   4  16
ATOM     16  C   UNL     1      53.271 154.548  25.834  1.00  0.00     0.038 C 
ATOM     17  C   UNL     1      53.074 154.937  24.388  1.00  0.00     0.029 C 
ATOM     18  C   UNL     1      54.458 154.914  24.964  1.00  0.00     0.061 C 
BRANCH  18  19
ATOM     19  N   UNL     1      55.397 153.858  24.559  1.00  0.00    -0.313 NA
ATOM     20  H   UNL     1      54.984 153.301  23.812  1.00  0.00     0.122 HD
BRANCH  19  21
ATOM     21  C   UNL     1      55.760 152.986  25.673  1.00  0.00     0.081 C 
BRANCH  21  22
ATOM     22  C   UNL     1      55.414 151.509  25.427  1.00  0.00     0.019 C 
BRANCH  22  23
ATOM     23  C   UNL     1      54.156 151.288  24.551  1.00  0.00    -0.010 C 
ATOM     24  C   UNL     1      54.090 149.873  23.944  1.00  0.00     0.003 C 
ATOM     25  C   UNL     1      52.867 151.568  25.347  1.00  0.00     0.003 C 
ATOM     26  C   UNL     1      53.751 148.784  24.964  1.00  0.00     0.000 C 
ATOM     27  C   UNL     1      52.567 150.495  26.390  1.00  0.00     0.000 C 
ATOM     28  C   UNL     1      52.490 149.112  25.753  1.00  0.00     0.000 C 
ENDBRANCH  22  23
ENDBRANCH  21  22
ENDBRANCH  19  21
ENDBRANCH  18  19
ENDBRANCH   4  16
TORSDOF 8
ENDMDL
MODEL 2
REMARK minimizedAffinity -10.075386
REMARK CNNscore 0.618577182
REMARK CNNaffinity 7.93061829
REMARK SMILES Brc1cccc(COc2ccc([C@H]3C[C@@H]3NCCC3CCCCC3)cc2)c1
REMARK SMILES IDX 9 1 10 2 11 3 12 4 25 5 26 6 8 7 7 8 6 9 2 10 3 11 27 12
REMARK SMILES IDX 4 13 5 14 1 15 13 16 14 17 15 18 16 19 17 21 18 22 19 23
REMARK SMILES IDX 20 24 24 25 21 26 23 27 22 28
REMARK H PARENT 16 20
ROOT
ATOM      1  C   UNL     1      51.578 156.005  28.768  1.00  0.00     0.119 A 
ATOM      2  C   UNL     1      51.318 154.863  28.012  1.00  0.00     0.047 A 
ATOM      3  C   UNL     1      51.958 154.656  26.786  1.00  0.00     0.008 A 
ATOM      4  C   UNL     1      52.865 155.593  26.269  1.00  0.00    -0.043 A 
ATOM      5  C   UNL     1      53.118 156.737  27.047  1.00  0.00     0.008 A 
ATOM      6  C   UNL     1      52.484 156.945  28.281  1.00  0.00     0.047 A 
ENDROOT
BRANCH   1   7
ATOM      7  O   UNL     1      50.882 156.081  29.941  1.00  0.00    -0.489 OA
BRANCH   7   8
ATOM      8  C   UNL     1      49.663 156.821  29.925  1.00  0.00     0.265 C 
BRANCH   8   9
ATOM      9  C   UNL     1      49.965 158.220  30.406  1.00  0.00    -0.010 A 
ATOM     10  C   UNL     1      49.339 160.178  31.695  1.00  0.00     0.018 A 
ATOM     11  C   UNL     1      50.527 160.811  31.333  1.00  0.00     0.016 A 
ATOM     12  C   UNL     1      49.056 158.889  31.240  1.00  0.00     0.023 A 
ATOM     13  C   UNL     1      51.441 160.149  30.513  1.00  0.00     0.002 A 
ATOM     14  C   UNL     1      51.163 158.859  30.054  1.00  0.00     0.007 A 
ATOM     15  Br  UNL     1      48.103 161.071  32.811  1.00  0.00    -0.051 Br
ENDBRANCH   8   9
ENDBRANCH   7   8
ENDBRANCH   1   7
BRANCH   4  16
ATOM     16  C   UNL     1      53.566 155.380  24.949  1.00  0.00     0.038 C 
ATOM     17  C   UNL     1      54.683 156.298  24.514  1.00  0.00     0.029 C 
ATOM     18  C   UNL     1      55.003 154.896  24.933  1.00  0.00     0.061 C 
BRANCH  18  19
ATOM     19  N   UNL     1      55.413 153.910  23.923  1.00  0.00    -0.313 NA
ATOM     20  H   UNL     1      56.081 154.335  23.281  1.00  0.00     0.122 HD
BRANCH  19  21
ATOM     21  C   UNL     1      54.276 153.390  23.168  1.00  0.00     0.081 C 
BRANCH  21  22
ATOM     22  C   UNL     1      53.934 151.931  23.511  1.00  0.00     0.019 C 
BRANCH  22  23
ATOM     23  C   UNL     1      54.503 151.447  24.868  1.00  0.00    -0.010 C 
ATOM     24  C   UNL     1      53.610 151.832  26.064  1.00  0.00     0.003 C 
ATOM     25  C   UNL     1      54.732 149.924  24.865  1.00  0.00     0.003 C 
ATOM     26  C   UNL     1      52.317 151.018  26.149  1.00  0.00     0.000 C 
ATOM     27  C   UNL     1      53.431 149.127  24.906  1.00  0.00     0.000 C 
ATOM     28  C   UNL     1      52.582 149.518  26.110  1.00  0.00     0.000 C 
ENDBRANCH  22  23
ENDBRANCH  21  22
ENDBRANCH  19  21
ENDBRANCH  18  19
ENDBRANCH   4  16
TORSDOF 8
ENDMDL
MODEL 3
REMARK minimizedAffinity -9.71363735
REMARK CNNscore 0.558937311
REMARK CNNaffinity 7.74733496
REMARK SMILES Brc1cccc(COc2ccc([C@H]3C[C@@H]3NCCC3CCCCC3)cc2)c1
REMARK SMILES IDX 9 1 10 2 11 3 12 4 25 5 26 6 8 7 7 8 6 9 2 10 3 11 27 12
REMARK SMILES IDX 4 13 5 14 1 15 13 16 14 17 15 18 16 19 17 21 18 22 19 23
REMARK SMILES IDX 20 24 24 25 21 26 23 27 22 28
REMARK H PARENT 16 20
ROOT
ATOM      1  C   UNL     1      51.129 156.756  29.517  1.00  0.00     0.119 A 
ATOM      2  C   UNL     1      50.693 155.492  29.122  1.00  0.00     0.047 A 
ATOM      3  C   UNL     1      51.261 154.852  28.015  1.00  0.00     0.008 A 
ATOM      4  C   UNL     1      52.273 155.465  27.260  1.00  0.00    -0.043 A 
ATOM      5  C   UNL     1      52.703 156.737  27.676  1.00  0.00     0.008 A 
ATOM      6  C   UNL     1      52.141 157.379  28.789  1.00  0.00     0.047 A 
ENDROOT
BRANCH   1   7
ATOM      7  O   UNL     1      50.485 157.264  30.609  1.00  0.00    -0.489 OA
BRANCH   7   8
ATOM      8  C   UNL     1      49.445 158.209  30.367  1.00  0.00     0.265 C 
BRANCH   8   9
ATOM      9  C   UNL     1      49.798 159.482  31.098  1.00  0.00    -0.010 A 
ATOM     10  C   UNL     1      51.347 161.301  31.516  1.00  0.00     0.018 A 
ATOM     11  C   UNL     1      50.456 161.867  32.427  1.00  0.00     0.016 A 
ATOM     12  C   UNL     1      51.025 160.119  30.850  1.00  0.00     0.023 A 
ATOM     13  C   UNL     1      49.231 161.247  32.671  1.00  0.00     0.002 A 
ATOM     14  C   UNL     1      48.902 160.062  32.007  1.00  0.00     0.007 A 
ATOM     15  Br  UNL     1      53.006 162.145  31.180  1.00  0.00    -0.051 Br
ENDBRANCH   8   9
ENDBRANCH   7   8
ENDBRANCH   1   7
BRANCH   4  16
ATOM     16  C   UNL     1      52.900 154.783  26.066  1.00  0.00     0.038 C 
ATOM     17  C   UNL     1      52.702 155.335  24.674  1.00  0.00     0.029 C 
ATOM     18  C   UNL     1      54.043 155.456  25.333  1.00  0.00     0.061 C 
BRANCH  18  19
ATOM     19  N   UNL     1      55.165 154.637  24.855  1.00  0.00    -0.313 NA
ATOM     20  H   UNL     1      55.982 155.228  24.707  1.00  0.00     0.122 HD
BRANCH  19  21
ATOM     21  C   UNL     1      54.844 153.931  23.617  1.00  0.00     0.081 C 
BRANCH  21  22
ATOM     22  C   UNL     1      54.181 152.564  23.851  1.00  0.00     0.019 C 
BRANCH  22  23
ATOM     23  C   UNL     1      54.661 151.836  25.130  1.00  0.00    -0.010 C 
ATOM     24  C   UNL     1      53.633 151.900  26.277  1.00  0.00     0.003 C 
ATOM     25  C   UNL     1      55.012 150.365  24.835  1.00  0.00     0.003 C 
ATOM     26  C   UNL     1      52.408 151.011  26.053  1.00  0.00     0.000 C 
ATOM     27  C   UNL     1      53.782 149.501  24.571  1.00  0.00     0.000 C 
ATOM     28  C   UNL     1      52.797 149.573  25.732  1.00  0.00     0.000 C 
ENDBRANCH  22  23
ENDBRANCH  21  22
ENDBRANCH  19  21
ENDBRANCH  18  19
ENDBRANCH   4  16
TORSDOF 8
ENDMDL
MODEL 4
REMARK minimizedAffinity -7.94920063
REMARK CNNscore 0.531171143
REMARK CNNaffinity 8.13032055
REMARK SMILES Brc1cccc(COc2ccc([C@H]3C[C@@H]3NCCC3CCCCC3)cc2)c1
REMARK SMILES IDX 9 1 10 2 11 3 12 4 25 5 26 6 8 7 7 8 6 9 2 10 3 11 27 12
REMARK SMILES IDX 4 13 5 14 1 15 13 16 14 17 15 18 16 19 17 21 18 22 19 23
REMARK SMILES IDX 20 24 24 25 21 26 23 27 22 28
REMARK H PARENT 16 20
ROOT
ATOM      1  C   UNL     1      51.613 157.393  29.107  1.00  0.00     0.119 A 
ATOM      2  C   UNL     1      52.516 156.926  28.153  1.00  0.00     0.047 A 
ATOM      3  C   UNL     1      52.749 155.555  27.999  1.00  0.00     0.008 A 
ATOM      4  C   UNL     1      52.098 154.610  28.807  1.00  0.00    -0.043 A 
ATOM      5  C   UNL     1      51.187 155.100  29.760  1.00  0.00     0.008 A 
ATOM      6  C   UNL     1      50.946 156.473  29.912  1.00  0.00     0.047 A 
ENDROOT
BRANCH   1   7
ATOM      7  O   UNL     1      51.486 158.752  29.152  1.00  0.00    -0.489 OA
BRANCH   7   8
ATOM      8  C   UNL     1      52.099 159.425  30.249  1.00  0.00     0.265 C 
BRANCH   8   9
ATOM      9  C   UNL     1      51.019 160.172  30.994  1.00  0.00    -0.010 A 
ATOM     10  C   UNL     1      48.690 160.419  31.626  1.00  0.00     0.018 A 
ATOM     11  C   UNL     1      49.005 161.535  32.399  1.00  0.00     0.016 A 
ATOM     12  C   UNL     1      49.687 159.735  30.929  1.00  0.00     0.023 A 
ATOM     13  C   UNL     1      50.327 161.970  32.478  1.00  0.00     0.002 A 
ATOM     14  C   UNL     1      51.330 161.290  31.782  1.00  0.00     0.007 A 
ATOM     15  Br  UNL     1      46.898 159.825  31.523  1.00  0.00    -0.051 Br
ENDBRANCH   8   9
ENDBRANCH   7   8
ENDBRANCH   1   7
BRANCH   4  16
ATOM     16  C   UNL     1      52.336 153.127  28.648  1.00  0.00     0.038 C 
ATOM     17  C   UNL     1      51.226 152.137  28.910  1.00  0.00     0.029 C 
ATOM     18  C   UNL     1      51.679 152.381  27.503  1.00  0.00     0.061 C 
BRANCH  18  19
ATOM     19  N   UNL     1      52.443 151.344  26.795  1.00  0.00    -0.313 NA
ATOM     20  H   UNL     1      53.066 150.872  27.449  1.00  0.00     0.122 HD
BRANCH  19  21
ATOM     21  C   UNL     1      53.223 151.893  25.689  1.00  0.00     0.081 C 
BRANCH  21  22
ATOM     22  C   UNL     1      53.344 153.425  25.732  1.00  0.00     0.019 C 
BRANCH  22  23
ATOM     23  C   UNL     1      53.322 154.104  24.341  1.00  0.00    -0.010 C 
ATOM     24  C   UNL     1      52.862 155.574  24.398  1.00  0.00     0.003 C 
ATOM     25  C   UNL     1      54.701 154.022  23.659  1.00  0.00     0.003 C 
ATOM     26  C   UNL     1      53.902 156.517  25.005  1.00  0.00     0.000 C 
ATOM     27  C   UNL     1      55.739 154.936  24.303  1.00  0.00     0.000 C 
ATOM     28  C   UNL     1      55.260 156.384  24.327  1.00  0.00     0.000 C 
ENDBRANCH  22  23
ENDBRANCH  21  22
ENDBRANCH  19  21
ENDBRANCH  18  19
ENDBRANCH   4  16
TORSDOF 8
ENDMDL
MODEL 5
REMARK minimizedAffinity -9.07407093
REMARK CNNscore 0.49936372
REMARK CNNaffinity 8.0361042
REMARK SMILES Brc1cccc(COc2ccc([C@H]3C[C@@H]3NCCC3CCCCC3)cc2)c1
REMARK SMILES IDX 9 1 10 2 11 3 12 4 25 5 26 6 8 7 7 8 6 9 2 10 3 11 27 12
REMARK SMILES IDX 4 13 5 14 1 15 13 16 14 17 15 18 16 19 17 21 18 22 19 23
REMARK SMILES IDX 20 24 24 25 21 26 23 27 22 28
REMARK H PARENT 16 20
ROOT
ATOM      1  C   UNL     1      51.637 158.216  29.701  1.00  0.00     0.119 A 
ATOM      2  C   UNL     1      52.731 157.993  28.867  1.00  0.00     0.047 A 
ATOM      3  C   UNL     1      53.000 156.715  28.367  1.00  0.00     0.008 A 
ATOM      4  C   UNL     1      52.191 155.617  28.699  1.00  0.00    -0.043 A 
ATOM      5  C   UNL     1      51.090 155.862  29.537  1.00  0.00     0.008 A 
ATOM      6  C   UNL     1      50.813 157.144  30.036  1.00  0.00     0.047 A 
ENDROOT
BRANCH   1   7
ATOM      7  O   UNL     1      51.495 159.509  30.119  1.00  0.00    -0.489 OA
BRANCH   7   8
ATOM      8  C   UNL     1      50.417 160.257  29.562  1.00  0.00     0.265 C 
BRANCH   8   9
ATOM      9  C   UNL     1      49.296 160.275  30.572  1.00  0.00    -0.010 A 
ATOM     10  C   UNL     1      48.406 161.004  32.708  1.00  0.00     0.018 A 
ATOM     11  C   UNL     1      47.207 160.343  32.449  1.00  0.00     0.016 A 
ATOM     12  C   UNL     1      49.446 160.978  31.779  1.00  0.00     0.023 A 
ATOM     13  C   UNL     1      47.045 159.652  31.249  1.00  0.00     0.002 A 
ATOM     14  C   UNL     1      48.083 159.621  30.314  1.00  0.00     0.007 A 
ATOM     15  Br  UNL     1      48.625 161.947  34.333  1.00  0.00    -0.051 Br
ENDBRANCH   8   9
ENDBRANCH   7   8
ENDBRANCH   1   7
BRANCH   4  16
ATOM     16  C   UNL     1      52.467 154.232  28.161  1.00  0.00     0.038 C 
ATOM     17  C   UNL     1      52.045 153.008  28.938  1.00  0.00     0.029 C 
ATOM     18  C   UNL     1      51.315 153.372  27.681  1.00  0.00     0.061 C 
BRANCH  18  19
ATOM     19  N   UNL     1      51.492 152.552  26.473  1.00  0.00    -0.313 NA
ATOM     20  H   UNL     1      50.763 151.841  26.433  1.00  0.00     0.122 HD
BRANCH  19  21
ATOM     21  C   UNL     1      52.803 151.909  26.432  1.00  0.00     0.081 C 
BRANCH  21  22
ATOM     22  C   UNL     1      53.899 152.802  25.827  1.00  0.00     0.019 C 
BRANCH  22  23
ATOM     23  C   UNL     1      53.489 153.509  24.513  1.00  0.00    -0.010 C 
ATOM     24  C   UNL     1      52.767 154.850  24.753  1.00  0.00     0.003 C 
ATOM     25  C   UNL     1      54.708 153.737  23.599  1.00  0.00     0.003 C 
ATOM     26  C   UNL     1      53.695 155.966  25.237  1.00  0.00     0.000 C 
ATOM     27  C   UNL     1      55.646 154.823  24.117  1.00  0.00     0.000 C 
ATOM     28  C   UNL     1      54.905 156.139  24.326  1.00  0.00     0.000 C 
ENDBRANCH  22  23
ENDBRANCH  21  22
ENDBRANCH  19  21
ENDBRANCH  18  19
ENDBRANCH   4  16
TORSDOF 8
ENDMDL
MODEL 6
REMARK minimizedAffinity -8.17315388
REMARK CNNscore 0.49796769
REMARK CNNaffinity 7.87518644
REMARK SMILES Brc1cccc(COc2ccc([C@H]3C[C@@H]3NCCC3CCCCC3)cc2)c1
REMARK SMILES IDX 9 1 10 2 11 3 12 4 25 5 26 6 8 7 7 8 6 9 2 10 3 11 27 12
REMARK SMILES IDX 4 13 5 14 1 15 13 16 14 17 15 18 16 19 17 21 18 22 19 23
REMARK SMILES IDX 20 24 24 25 21 26 23 27 22 28
REMARK H PARENT 16 20
ROOT
ATOM      1  C   UNL     1      51.596 158.558  29.543  1.00  0.00     0.119 A 
ATOM      2  C   UNL     1      52.718 158.309  28.754  1.00  0.00     0.047 A 
ATOM      3  C   UNL     1      53.016 157.012  28.324  1.00  0.00     0.008 A 
ATOM      4  C   UNL     1      52.210 155.921  28.684  1.00  0.00    -0.043 A 
ATOM      5  C   UNL     1      51.081 156.192  29.476  1.00  0.00     0.008 A 
ATOM      6  C   UNL     1      50.774 157.493  29.904  1.00  0.00     0.047 A 
ENDROOT
BRANCH   1   7
ATOM      7  O   UNL     1      51.427 159.868  29.894  1.00  0.00    -0.489 OA
BRANCH   7   8
ATOM      8  C   UNL     1      51.777 160.232  31.227  1.00  0.00     0.265 C 
BRANCH   8   9
ATOM      9  C   UNL     1      50.513 160.643  31.941  1.00  0.00    -0.010 A 
ATOM     10  C   UNL     1      48.102 160.521  32.180  1.00  0.00     0.018 A 
ATOM     11  C   UNL     1      48.155 161.376  33.280  1.00  0.00     0.016 A 
ATOM     12  C   UNL     1      49.270 160.150  31.513  1.00  0.00     0.023 A 
ATOM     13  C   UNL     1      49.386 161.862  33.718  1.00  0.00     0.002 A 
ATOM     14  C   UNL     1      50.560 161.495  33.055  1.00  0.00     0.007 A 
ATOM     15  Br  UNL     1      46.434 159.857  31.589  1.00  0.00    -0.051 Br
ENDBRANCH   8   9
ENDBRANCH   7   8
ENDBRANCH   1   7
BRANCH   4  16
ATOM     16  C   UNL     1      52.518 154.516  28.222  1.00  0.00     0.038 C 
ATOM     17  C   UNL     1      51.981 153.324  28.977  1.00  0.00     0.029 C 
ATOM     18  C   UNL     1      51.413 153.662  27.632  1.00  0.00     0.061 C 
BRANCH  18  19
ATOM     19  N   UNL     1      51.715 152.803  26.478  1.00  0.00    -0.313 NA
ATOM     20  H   UNL     1      50.969 152.118  26.358  1.00  0.00     0.122 HD
BRANCH  19  21
ATOM     21  C   UNL     1      52.993 152.112  26.626  1.00  0.00     0.081 C 
BRANCH  21  22
ATOM     22  C   UNL     1      53.188 150.973  25.612  1.00  0.00     0.019 C 
BRANCH  22  23
ATOM     23  C   UNL     1      54.407 151.157  24.676  1.00  0.00    -0.010 C 
ATOM     24  C   UNL     1      54.076 151.980  23.416  1.00  0.00     0.003 C 
ATOM     25  C   UNL     1      55.588 151.810  25.421  1.00  0.00     0.003 C 
ATOM     26  C   UNL     1      53.877 153.472  23.693  1.00  0.00     0.000 C 
ATOM     27  C   UNL     1      55.355 153.286  25.729  1.00  0.00     0.000 C 
ATOM     28  C   UNL     1      55.049 154.072  24.459  1.00  0.00     0.000 C 
ENDBRANCH  22  23
ENDBRANCH  21  22
ENDBRANCH  19  21
ENDBRANCH  18  19
ENDBRANCH   4  16
TORSDOF 8
ENDMDL
MODEL 7
REMARK minimizedAffinity -7.61281824
REMARK CNNscore 0.483754307
REMARK CNNaffinity 7.86256933
REMARK SMILES Brc1cccc(COc2ccc([C@H]3C[C@@H]3NCCC3CCCCC3)cc2)c1
REMARK SMILES IDX 9 1 10 2 11 3 12 4 25 5 26 6 8 7 7 8 6 9 2 10 3 11 27 12
REMARK SMILES IDX 4 13 5 14 1 15 13 16 14 17 15 18 16 19 17 21 18 22 19 23
REMARK SMILES IDX 20 24 24 25 21 26 23 27 22 28
REMARK H PARENT 16 20
ROOT
ATOM      1  C   UNL     1      50.970 156.666  29.517  1.00  0.00     0.119 A 
ATOM      2  C   UNL     1      50.439 155.430  29.886  1.00  0.00     0.047 A 
ATOM      3  C   UNL     1      51.051 154.240  29.480  1.00  0.00     0.008 A 
ATOM      4  C   UNL     1      52.204 154.248  28.679  1.00  0.00    -0.043 A 
ATOM      5  C   UNL     1      52.727 155.503  28.321  1.00  0.00     0.008 A 
ATOM      6  C   UNL     1      52.121 156.700  28.732  1.00  0.00     0.047 A 
ENDROOT
BRANCH   1   7
ATOM      7  O   UNL     1      50.271 157.745  29.978  1.00  0.00    -0.489 OA
BRANCH   7   8
ATOM      8  C   UNL     1      51.004 158.948  30.196  1.00  0.00     0.265 C 
BRANCH   8   9
ATOM      9  C   UNL     1      50.041 159.990  30.711  1.00  0.00    -0.010 A 
ATOM     10  C   UNL     1      49.165 161.316  32.543  1.00  0.00     0.018 A 
ATOM     11  C   UNL     1      48.274 161.948  31.677  1.00  0.00     0.016 A 
ATOM     12  C   UNL     1      50.047 160.345  32.069  1.00  0.00     0.023 A 
ATOM     13  C   UNL     1      48.268 161.609  30.324  1.00  0.00     0.002 A 
ATOM     14  C   UNL     1      49.149 160.637  29.843  1.00  0.00     0.007 A 
ATOM     15  Br  UNL     1      49.178 161.779  34.376  1.00  0.00    -0.051 Br
ENDBRANCH   8   9
ENDBRANCH   7   8
ENDBRANCH   1   7
BRANCH   4  16
ATOM     16  C   UNL     1      52.877 152.970  28.239  1.00  0.00     0.038 C 
ATOM     17  C   UNL     1      52.199 152.041  27.260  1.00  0.00     0.029 C 
ATOM     18  C   UNL     1      53.385 152.842  26.815  1.00  0.00     0.061 C 
BRANCH  18  19
ATOM     19  N   UNL     1      54.669 152.168  26.574  1.00  0.00    -0.313 NA
ATOM     20  H   UNL     1      55.362 152.503  27.242  1.00  0.00     0.122 HD
BRANCH  19  21
ATOM     21  C   UNL     1      55.157 152.384  25.215  1.00  0.00     0.081 C 
BRANCH  21  22
ATOM     22  C   UNL     1      55.729 153.793  24.991  1.00  0.00     0.019 C 
BRANCH  22  23
ATOM     23  C   UNL     1      55.046 154.581  23.846  1.00  0.00    -0.010 C 
ATOM     24  C   UNL     1      53.560 154.212  23.668  1.00  0.00     0.003 C 
ATOM     25  C   UNL     1      55.177 156.101  24.062  1.00  0.00     0.003 C 
ATOM     26  C   UNL     1      52.657 154.754  24.777  1.00  0.00     0.000 C 
ATOM     27  C   UNL     1      54.303 156.619  25.200  1.00  0.00     0.000 C 
ATOM     28  C   UNL     1      52.839 156.253  24.982  1.00  0.00     0.000 C 
ENDBRANCH  22  23
ENDBRANCH  21  22
ENDBRANCH  19  21
ENDBRANCH  18  19
ENDBRANCH   4  16
TORSDOF 8
ENDMDL
MODEL 8
REMARK minimizedAffinity -8.23900509
REMARK CNNscore 0.468604535
REMARK CNNaffinity 7.45515299
REMARK SMILES Brc1cccc(COc2ccc([C@H]3C[C@@H]3NCCC3CCCCC3)cc2)c1
REMARK SMILES IDX 9 1 10 2 11 3 12 4 25 5 26 6 8 7 7 8 6 9 2 10 3 11 27 12
REMARK SMILES IDX 4 13 5 14 1 15 13 16 14 17 15 18 16 19 17 21 18 22 19 23
REMARK SMILES IDX 20 24 24 25 21 26 23 27 22 28
REMARK H PARENT 16 20
ROOT
ATOM      1  C   UNL     1      51.698 157.343  29.248  1.00  0.00     0.119 A 
ATOM      2  C   UNL     1      51.270 156.021  29.140  1.00  0.00     0.047 A 
ATOM      3  C   UNL     1      51.697 155.216  28.078  1.00  0.00     0.008 A 
ATOM      4  C   UNL     1      52.552 155.715  27.083  1.00  0.00    -0.043 A 
ATOM      5  C   UNL     1      52.976 157.050  27.212  1.00  0.00     0.008 A 
ATOM      6  C   UNL     1      52.556 157.858  28.279  1.00  0.00     0.047 A 
ENDROOT
BRANCH   1   7
ATOM      7  O   UNL     1      51.201 158.014  30.330  1.00  0.00    -0.489 OA
BRANCH   7   8
ATOM      8  C   UNL     1      50.972 159.413  30.176  1.00  0.00     0.265 C 
BRANCH   8   9
ATOM      9  C   UNL     1      49.731 159.767  30.959  1.00  0.00    -0.010 A 
ATOM     10  C   UNL     1      48.659 161.004  32.749  1.00  0.00     0.018 A 
ATOM     11  C   UNL     1      47.424 160.457  32.404  1.00  0.00     0.016 A 
ATOM     12  C   UNL     1      49.808 160.667  32.033  1.00  0.00     0.023 A 
ATOM     13  C   UNL     1      47.336 159.570  31.332  1.00  0.00     0.002 A 
ATOM     14  C   UNL     1      48.483 159.229  30.611  1.00  0.00     0.007 A 
ATOM     15  Br  UNL     1      48.777 162.212  34.199  1.00  0.00    -0.051 Br
ENDBRANCH   8   9
ENDBRANCH   7   8
ENDBRANCH   1   7
BRANCH   4  16
ATOM     16  C   UNL     1      53.025 154.856  25.934  1.00  0.00     0.038 C 
ATOM     17  C   UNL     1      52.667 155.210  24.511  1.00  0.00     0.029 C 
ATOM     18  C   UNL     1      54.078 155.390  24.982  1.00  0.00     0.061 C 
BRANCH  18  19
ATOM     19  N   UNL     1      55.128 154.482  24.499  1.00  0.00    -0.313 NA
ATOM     20  H   UNL     1      55.961 155.018  24.262  1.00  0.00     0.122 HD
BRANCH  19  21
ATOM     21  C   UNL     1      54.696 153.712  23.334  1.00  0.00     0.081 C 
BRANCH  21  22
ATOM     22  C   UNL     1      53.933 152.430  23.702  1.00  0.00     0.019 C 
BRANCH  22  23
ATOM     23  C   UNL     1      54.613 151.579  24.802  1.00  0.00    -0.010 C 
ATOM     24  C   UNL     1      54.172 151.977  26.225  1.00  0.00     0.003 C 
ATOM     25  C   UNL     1      54.353 150.076  24.585  1.00  0.00     0.003 C 
ATOM     26  C   UNL     1      52.745 151.546  26.568  1.00  0.00     0.000 C 
ATOM     27  C   UNL     1      52.914 149.670  24.888  1.00  0.00     0.000 C 
ATOM     28  C   UNL     1      52.518 150.061  26.308  1.00  0.00     0.000 C 
ENDBRANCH  22  23
ENDBRANCH  21  22
ENDBRANCH  19  21
ENDBRANCH  18  19
ENDBRANCH   4  16
TORSDOF 8
ENDMDL
MODEL 9
REMARK minimizedAffinity 4.3396163
REMARK CNNscore 0.430453688
REMARK CNNaffinity 7.27861738
REMARK SMILES Brc1cccc(COc2ccc([C@H]3C[C@@H]3NCCC3CCCCC3)cc2)c1
REMARK SMILES IDX 9 1 10 2 11 3 12 4 25 5 26 6 8 7 7 8 6 9 2 10 3 11 27 12
REMARK SMILES IDX 4 13 5 14 1 15 13 16 14 17 15 18 16 19 17 21 18 22 19 23
REMARK SMILES IDX 20 24 24 25 21 26 23 27 22 28
REMARK H PARENT 16 20
ROOT
ATOM      1  C   UNL     1      50.403 156.170  29.712  1.00  0.00     0.119 A 
ATOM      2  C   UNL     1      51.395 155.345  30.240  1.00  0.00     0.047 A 
ATOM      3  C   UNL     1      52.093 154.452  29.421  1.00  0.00     0.008 A 
ATOM      4  C   UNL     1      51.808 154.344  28.051  1.00  0.00    -0.043 A 
ATOM      5  C   UNL     1      50.808 155.186  27.536  1.00  0.00     0.008 A 
ATOM      6  C   UNL     1      50.110 156.089  28.352  1.00  0.00     0.047 A 
ENDROOT
BRANCH   1   7
ATOM      7  O   UNL     1      49.800 156.989  30.624  1.00  0.00    -0.489 OA
BRANCH   7   8
ATOM      8  C   UNL     1      50.576 158.070  31.138  1.00  0.00     0.265 C 
BRANCH   8   9
ATOM      9  C   UNL     1      49.710 159.306  31.129  1.00  0.00    -0.010 A 
ATOM     10  C   UNL     1      48.699 161.170  32.307  1.00  0.00     0.018 A 
ATOM     11  C   UNL     1      48.126 161.626  31.121  1.00  0.00     0.016 A 
ATOM     12  C   UNL     1      49.490 160.021  32.317  1.00  0.00     0.023 A 
ATOM     13  C   UNL     1      48.348 160.928  29.934  1.00  0.00     0.002 A 
ATOM     14  C   UNL     1      49.139 159.775  29.937  1.00  0.00     0.007 A 
ATOM     15  Br  UNL     1      48.404 162.119  33.916  1.00  0.00    -0.051 Br
ENDBRANCH   8   9
ENDBRANCH   7   8
ENDBRANCH   1   7
BRANCH   4  16
ATOM     16  C   UNL     1      52.558 153.387  27.154  1.00  0.00     0.038 C 
ATOM     17  C   UNL     1      51.866 152.178  26.570  1.00  0.00     0.029 C 
ATOM     18  C   UNL     1      52.224 153.326  25.676  1.00  0.00     0.061 C 
BRANCH  18  19
ATOM     19  N   UNL     1      53.316 153.178  24.704  1.00  0.00    -0.313 NA
ATOM     20  H   UNL     1      53.853 152.339  24.918  1.00  0.00     0.122 HD
BRANCH  19  21
ATOM     21  C   UNL     1      54.205 154.337  24.694  1.00  0.00     0.081 C 
BRANCH  21  22
ATOM     22  C   UNL     1      55.688 153.967  24.857  1.00  0.00     0.019 C 
BRANCH  22  23
ATOM     23  C   UNL     1      55.943 152.459  25.103  1.00  0.00    -0.010 C 
ATOM     24  C   UNL     1      57.431 152.135  25.342  1.00  0.00     0.003 C 
ATOM     25  C   UNL     1      55.106 151.938  26.286  1.00  0.00     0.003 C 
ATOM     26  C   UNL     1      57.946 152.595  26.707  1.00  0.00     0.000 C 
ATOM     27  C   UNL     1      55.606 152.441  27.637  1.00  0.00     0.000 C 
ATOM     28  C   UNL     1      57.074 152.087  27.848  1.00  0.00     0.000 C 
ENDBRANCH  22  23
ENDBRANCH  21  22
ENDBRANCH  19  21
ENDBRANCH  18  19
ENDBRANCH   4  16
TORSDOF 8
ENDMDL
