MODEL 1
REMARK minimizedAffinity -6.94613838
REMARK CNNscore 0.847626925
REMARK CNNaffinity 5.53849459
REMARK SMILES C#CCN(C)CC(=C)c1ccccc1
REMARK SMILES IDX 4 1 5 2 3 3 2 4 1 5 6 6 7 7 8 8 9 9 10 10 14 11 11 12 13 13
REMARK SMILES IDX 12 14
REMARK H PARENT
ROOT
ATOM      1  N   UNL     1      51.998 157.275  29.399  1.00  0.00    -0.291 NA
ATOM      2  C   UNL     1      52.649 157.208  28.119  1.00  0.00     0.106 C 
ENDROOT
BRANCH   1   3
ATOM      3  C   UNL     1      51.120 156.183  29.669  1.00  0.00     0.174 C 
ATOM      4  C   UNL     1      51.626 154.917  29.144  1.00  0.00    -0.091 C 
ATOM      5  C   UNL     1      52.057 153.872  28.724  1.00  0.00     0.005 C 
ENDBRANCH   1   3
BRANCH   1   6
ATOM      6  C   UNL     1      51.531 158.553  29.768  1.00  0.00     0.120 C 
BRANCH   6   7
ATOM      7  C   UNL     1      50.157 158.616  30.323  1.00  0.00    -0.034 C 
ATOM      8  C   UNL     1      49.254 157.733  29.964  1.00  0.00     0.014 C 
BRANCH   7   9
ATOM      9  C   UNL     1      49.800 159.669  31.259  1.00  0.00    -0.022 A 
ATOM     10  C   UNL     1      50.659 160.631  31.699  1.00  0.00     0.008 A 
ATOM     11  C   UNL     1      48.488 159.712  31.745  1.00  0.00     0.008 A 
ATOM     12  C   UNL     1      50.266 161.625  32.597  1.00  0.00     0.001 A 
ATOM     13  C   UNL     1      48.084 160.685  32.631  1.00  0.00     0.001 A 
ATOM     14  C   UNL     1      48.982 161.644  33.055  1.00  0.00     0.000 A 
ENDBRANCH   7   9
ENDBRANCH   6   7
ENDBRANCH   1   6
TORSDOF 4
ENDMDL
MODEL 2
REMARK minimizedAffinity -7.97178698
REMARK CNNscore 0.841346443
REMARK CNNaffinity 5.90494537
REMARK SMILES C#CCN(C)CC(=C)c1ccccc1
REMARK SMILES IDX 4 1 5 2 3 3 2 4 1 5 6 6 7 7 8 8 9 9 10 10 14 11 11 12 13 13
REMARK SMILES IDX 12 14
REMARK H PARENT
ROOT
ATOM      1  N   UNL     1      53.695 153.266  25.020  1.00  0.00    -0.291 NA
ATOM      2  C   UNL     1      54.211 152.968  23.712  1.00  0.00     0.106 C 
ENDROOT
BRANCH   1   3
ATOM      3  C   UNL     1      53.410 152.116  25.815  1.00  0.00     0.174 C 
ATOM      4  C   UNL     1      53.821 150.873  25.166  1.00  0.00    -0.091 C 
ATOM      5  C   UNL     1      54.178 149.852  24.633  1.00  0.00     0.005 C 
ENDBRANCH   1   3
BRANCH   1   6
ATOM      6  C   UNL     1      52.743 154.305  25.067  1.00  0.00     0.120 C 
BRANCH   6   7
ATOM      7  C   UNL     1      53.166 155.554  25.746  1.00  0.00    -0.034 C 
ATOM      8  C   UNL     1      54.020 156.368  25.168  1.00  0.00     0.014 C 
BRANCH   7   9
ATOM      9  C   UNL     1      52.645 155.877  27.064  1.00  0.00    -0.022 A 
ATOM     10  C   UNL     1      52.878 157.051  27.716  1.00  0.00     0.008 A 
ATOM     11  C   UNL     1      51.844 154.931  27.714  1.00  0.00     0.008 A 
ATOM     12  C   UNL     1      52.351 157.316  28.981  1.00  0.00     0.001 A 
ATOM     13  C   UNL     1      51.317 155.177  28.963  1.00  0.00     0.001 A 
ATOM     14  C   UNL     1      51.575 156.377  29.593  1.00  0.00     0.000 A 
ENDBRANCH   7   9
ENDBRANCH   6   7
ENDBRANCH   1   6
TORSDOF 4
ENDMDL
MODEL 3
REMARK minimizedAffinity -7.93357897
REMARK CNNscore 0.839074552
REMARK CNNaffinity 5.92329216
REMARK SMILES C#CCN(C)CC(=C)c1ccccc1
REMARK SMILES IDX 4 1 5 2 3 3 2 4 1 5 6 6 7 7 8 8 9 9 10 10 14 11 11 12 13 13
REMARK SMILES IDX 12 14
REMARK H PARENT
ROOT
ATOM      1  N   UNL     1      53.718 153.307  24.918  1.00  0.00    -0.291 NA
ATOM      2  C   UNL     1      54.188 152.963  23.603  1.00  0.00     0.106 C 
ENDROOT
BRANCH   1   3
ATOM      3  C   UNL     1      53.447 152.185  25.756  1.00  0.00     0.174 C 
ATOM      4  C   UNL     1      53.835 150.920  25.138  1.00  0.00    -0.091 C 
ATOM      5  C   UNL     1      54.174 149.879  24.631  1.00  0.00     0.005 C 
ENDBRANCH   1   3
BRANCH   1   6
ATOM      6  C   UNL     1      52.779 154.358  24.963  1.00  0.00     0.120 C 
BRANCH   6   7
ATOM      7  C   UNL     1      53.187 155.573  25.709  1.00  0.00    -0.034 C 
ATOM      8  C   UNL     1      54.050 156.415  25.188  1.00  0.00     0.014 C 
BRANCH   7   9
ATOM      9  C   UNL     1      52.642 155.830  27.032  1.00  0.00    -0.022 A 
ATOM     10  C   UNL     1      51.903 154.935  27.746  1.00  0.00     0.008 A 
ATOM     11  C   UNL     1      52.891 157.073  27.625  1.00  0.00     0.008 A 
ATOM     12  C   UNL     1      51.405 155.228  29.017  1.00  0.00     0.001 A 
ATOM     13  C   UNL     1      52.406 157.378  28.878  1.00  0.00     0.001 A 
ATOM     14  C   UNL     1      51.661 156.446  29.572  1.00  0.00     0.000 A 
ENDBRANCH   7   9
ENDBRANCH   6   7
ENDBRANCH   1   6
TORSDOF 4
ENDMDL
MODEL 4
REMARK minimizedAffinity -7.71092129
REMARK CNNscore 0.815216303
REMARK CNNaffinity 6.30481482
REMARK SMILES C#CCN(C)CC(=C)c1ccccc1
REMARK SMILES IDX 4 1 5 2 3 3 2 4 1 5 6 6 7 7 8 8 9 9 10 10 14 11 11 12 13 13
REMARK SMILES IDX 12 14
REMARK H PARENT
ROOT
ATOM      1  N   UNL     1      54.002 153.970  24.713  1.00  0.00    -0.291 NA
ATOM      2  C   UNL     1      54.921 155.064  24.551  1.00  0.00     0.106 C 
ENDROOT
BRANCH   1   3
ATOM      3  C   UNL     1      54.105 152.964  23.707  1.00  0.00     0.174 C 
ATOM      4  C   UNL     1      54.145 151.616  24.269  1.00  0.00    -0.091 C 
ATOM      5  C   UNL     1      54.160 150.504  24.737  1.00  0.00     0.005 C 
ENDBRANCH   1   3
BRANCH   1   6
ATOM      6  C   UNL     1      52.694 154.337  25.093  1.00  0.00     0.120 C 
BRANCH   6   7
ATOM      7  C   UNL     1      52.312 154.044  26.496  1.00  0.00    -0.034 C 
ATOM      8  C   UNL     1      52.046 152.813  26.870  1.00  0.00     0.014 C 
BRANCH   7   9
ATOM      9  C   UNL     1      52.215 155.125  27.463  1.00  0.00    -0.022 A 
ATOM     10  C   UNL     1      52.792 156.350  27.307  1.00  0.00     0.008 A 
ATOM     11  C   UNL     1      51.479 154.908  28.634  1.00  0.00     0.008 A 
ATOM     12  C   UNL     1      52.667 157.358  28.265  1.00  0.00     0.001 A 
ATOM     13  C   UNL     1      51.346 155.893  29.588  1.00  0.00     0.001 A 
ATOM     14  C   UNL     1      51.945 157.121  29.396  1.00  0.00     0.000 A 
ENDBRANCH   7   9
ENDBRANCH   6   7
ENDBRANCH   1   6
TORSDOF 4
ENDMDL
MODEL 5
REMARK minimizedAffinity -6.37228394
REMARK CNNscore 0.803928852
REMARK CNNaffinity 6.02298307
REMARK SMILES C#CCN(C)CC(=C)c1ccccc1
REMARK SMILES IDX 4 1 5 2 3 3 2 4 1 5 6 6 7 7 8 8 9 9 10 10 14 11 11 12 13 13
REMARK SMILES IDX 12 14
REMARK H PARENT
ROOT
ATOM      1  N   UNL     1      52.920 154.409  26.532  1.00  0.00    -0.291 NA
ATOM      2  C   UNL     1      51.713 154.071  27.235  1.00  0.00     0.106 C 
ENDROOT
BRANCH   1   3
ATOM      3  C   UNL     1      52.708 155.029  25.265  1.00  0.00     0.174 C 
ATOM      4  C   UNL     1      53.660 156.105  25.004  1.00  0.00    -0.091 C 
ATOM      5  C   UNL     1      54.461 156.981  24.786  1.00  0.00     0.005 C 
ENDBRANCH   1   3
BRANCH   1   6
ATOM      6  C   UNL     1      53.937 153.433  26.583  1.00  0.00     0.120 C 
BRANCH   6   7
ATOM      7  C   UNL     1      54.155 152.646  25.346  1.00  0.00    -0.034 C 
ATOM      8  C   UNL     1      54.679 153.210  24.281  1.00  0.00     0.014 C 
BRANCH   7   9
ATOM      9  C   UNL     1      53.775 151.243  25.301  1.00  0.00    -0.022 A 
ATOM     10  C   UNL     1      54.447 150.287  24.600  1.00  0.00     0.008 A 
ATOM     11  C   UNL     1      52.650 150.834  26.026  1.00  0.00     0.008 A 
ATOM     12  C   UNL     1      54.044 148.950  24.592  1.00  0.00     0.001 A 
ATOM     13  C   UNL     1      52.239 149.520  26.028  1.00  0.00     0.001 A 
ATOM     14  C   UNL     1      52.944 148.578  25.307  1.00  0.00     0.000 A 
ENDBRANCH   7   9
ENDBRANCH   6   7
ENDBRANCH   1   6
TORSDOF 4
ENDMDL
MODEL 6
REMARK minimizedAffinity -6.05387592
REMARK CNNscore 0.797960341
REMARK CNNaffinity 6.16877031
REMARK SMILES C#CCN(C)CC(=C)c1ccccc1
REMARK SMILES IDX 4 1 5 2 3 3 2 4 1 5 6 6 7 7 8 8 9 9 10 10 14 11 11 12 13 13
REMARK SMILES IDX 12 14
REMARK H PARENT
ROOT
ATOM      1  N   UNL     1      53.973 152.203  25.254  1.00  0.00    -0.291 NA
ATOM      2  C   UNL     1      55.208 152.846  25.608  1.00  0.00     0.106 C 
ENDROOT
BRANCH   1   3
ATOM      3  C   UNL     1      54.021 151.472  24.029  1.00  0.00     0.174 C 
ATOM      4  C   UNL     1      54.125 150.031  24.244  1.00  0.00    -0.091 C 
ATOM      5  C   UNL     1      54.193 148.840  24.427  1.00  0.00     0.005 C 
ENDBRANCH   1   3
BRANCH   1   6
ATOM      6  C   UNL     1      52.812 152.974  25.471  1.00  0.00     0.120 C 
BRANCH   6   7
ATOM      7  C   UNL     1      52.501 153.311  26.881  1.00  0.00    -0.034 C 
ATOM      8  C   UNL     1      52.184 152.365  27.736  1.00  0.00     0.014 C 
BRANCH   7   9
ATOM      9  C   UNL     1      52.532 154.696  27.321  1.00  0.00    -0.022 A 
ATOM     10  C   UNL     1      51.886 155.166  28.425  1.00  0.00     0.008 A 
ATOM     11  C   UNL     1      53.276 155.616  26.574  1.00  0.00     0.008 A 
ATOM     12  C   UNL     1      51.951 156.507  28.809  1.00  0.00     0.001 A 
ATOM     13  C   UNL     1      53.349 156.941  26.939  1.00  0.00     0.001 A 
ATOM     14  C   UNL     1      52.682 157.382  28.063  1.00  0.00     0.000 A 
ENDBRANCH   7   9
ENDBRANCH   6   7
ENDBRANCH   1   6
TORSDOF 4
ENDMDL
MODEL 7
REMARK minimizedAffinity -6.64969254
REMARK CNNscore 0.75852114
REMARK CNNaffinity 5.39209509
REMARK SMILES C#CCN(C)CC(=C)c1ccccc1
REMARK SMILES IDX 4 1 5 2 3 3 2 4 1 5 6 6 7 7 8 8 9 9 10 10 14 11 11 12 13 13
REMARK SMILES IDX 12 14
REMARK H PARENT
ROOT
ATOM      1  N   UNL     1      51.556 158.042  29.771  1.00  0.00    -0.291 NA
ATOM      2  C   UNL     1      52.714 157.741  28.974  1.00  0.00     0.106 C 
ENDROOT
BRANCH   1   3
ATOM      3  C   UNL     1      50.641 156.956  29.910  1.00  0.00     0.174 C 
ATOM      4  C   UNL     1      51.178 155.703  29.386  1.00  0.00    -0.091 C 
ATOM      5  C   UNL     1      51.634 154.667  28.968  1.00  0.00     0.005 C 
ENDBRANCH   1   3
BRANCH   1   6
ATOM      6  C   UNL     1      50.984 159.311  29.541  1.00  0.00     0.120 C 
BRANCH   6   7
ATOM      7  C   UNL     1      51.217 160.336  30.586  1.00  0.00    -0.034 C 
ATOM      8  C   UNL     1      52.369 160.963  30.657  1.00  0.00     0.014 C 
BRANCH   7   9
ATOM      9  C   UNL     1      50.173 160.642  31.550  1.00  0.00    -0.022 A 
ATOM     10  C   UNL     1      50.361 161.385  32.677  1.00  0.00     0.008 A 
ATOM     11  C   UNL     1      48.883 160.153  31.313  1.00  0.00     0.008 A 
ATOM     12  C   UNL     1      49.323 161.655  33.571  1.00  0.00     0.001 A 
ATOM     13  C   UNL     1      47.849 160.411  32.185  1.00  0.00     0.001 A 
ATOM     14  C   UNL     1      48.077 161.167  33.317  1.00  0.00     0.000 A 
ENDBRANCH   7   9
ENDBRANCH   6   7
ENDBRANCH   1   6
TORSDOF 4
ENDMDL
MODEL 8
REMARK minimizedAffinity -6.99260092
REMARK CNNscore 0.743888974
REMARK CNNaffinity 5.86367464
REMARK SMILES C#CCN(C)CC(=C)c1ccccc1
REMARK SMILES IDX 4 1 5 2 3 3 2 4 1 5 6 6 7 7 8 8 9 9 10 10 14 11 11 12 13 13
REMARK SMILES IDX 12 14
REMARK H PARENT
ROOT
ATOM      1  N   UNL     1      52.534 154.368  26.465  1.00  0.00    -0.291 NA
ATOM      2  C   UNL     1      53.062 153.044  26.654  1.00  0.00     0.106 C 
ENDROOT
BRANCH   1   3
ATOM      3  C   UNL     1      52.648 154.860  25.130  1.00  0.00     0.174 C 
ATOM      4  C   UNL     1      53.519 154.030  24.302  1.00  0.00    -0.091 C 
ATOM      5  C   UNL     1      54.225 153.331  23.618  1.00  0.00     0.005 C 
ENDBRANCH   1   3
BRANCH   1   6
ATOM      6  C   UNL     1      52.833 155.286  27.493  1.00  0.00     0.120 C 
BRANCH   6   7
ATOM      7  C   UNL     1      51.961 155.237  28.691  1.00  0.00    -0.034 C 
ATOM      8  C   UNL     1      51.674 154.088  29.259  1.00  0.00     0.014 C 
BRANCH   7   9
ATOM      9  C   UNL     1      51.406 156.466  29.236  1.00  0.00    -0.022 A 
ATOM     10  C   UNL     1      50.158 156.573  29.773  1.00  0.00     0.008 A 
ATOM     11  C   UNL     1      52.198 157.619  29.220  1.00  0.00     0.008 A 
ATOM     12  C   UNL     1      49.672 157.776  30.289  1.00  0.00     0.001 A 
ATOM     13  C   UNL     1      51.732 158.814  29.724  1.00  0.00     0.001 A 
ATOM     14  C   UNL     1      50.463 158.885  30.260  1.00  0.00     0.000 A 
ENDBRANCH   7   9
ENDBRANCH   6   7
ENDBRANCH   1   6
TORSDOF 4
ENDMDL
MODEL 9
REMARK minimizedAffinity -6.83483124
REMARK CNNscore 0.72161293
REMARK CNNaffinity 5.86173248
REMARK SMILES C#CCN(C)CC(=C)c1ccccc1
REMARK SMILES IDX 4 1 5 2 3 3 2 4 1 5 6 6 7 7 8 8 9 9 10 10 14 11 11 12 13 13
REMARK SMILES IDX 12 14
REMARK H PARENT
ROOT
ATOM      1  N   UNL     1      52.839 152.877  25.886  1.00  0.00    -0.291 NA
ATOM      2  C   UNL     1      51.931 152.155  26.736  1.00  0.00     0.106 C 
ENDROOT
BRANCH   1   3
ATOM      3  C   UNL     1      53.569 152.056  24.976  1.00  0.00     0.174 C 
ATOM      4  C   UNL     1      54.158 152.824  23.882  1.00  0.00    -0.091 C 
ATOM      5  C   UNL     1      54.657 153.465  22.990  1.00  0.00     0.005 C 
ENDBRANCH   1   3
BRANCH   1   6
ATOM      6  C   UNL     1      53.570 153.901  26.522  1.00  0.00     0.120 C 
BRANCH   6   7
ATOM      7  C   UNL     1      53.018 155.272  26.405  1.00  0.00    -0.034 C 
ATOM      8  C   UNL     1      53.044 155.904  25.254  1.00  0.00     0.014 C 
BRANCH   7   9
ATOM      9  C   UNL     1      52.456 155.931  27.573  1.00  0.00    -0.022 A 
ATOM     10  C   UNL     1      52.817 157.173  28.003  1.00  0.00     0.008 A 
ATOM     11  C   UNL     1      51.474 155.259  28.309  1.00  0.00     0.008 A 
ATOM     12  C   UNL     1      52.244 157.765  29.130  1.00  0.00     0.001 A 
ATOM     13  C   UNL     1      50.900 155.829  29.423  1.00  0.00     0.001 A 
ATOM     14  C   UNL     1      51.290 157.089  29.830  1.00  0.00     0.000 A 
ENDBRANCH   7   9
ENDBRANCH   6   7
ENDBRANCH   1   6
TORSDOF 4
ENDMDL
