MODEL 1
REMARK minimizedAffinity -6.19820595
REMARK CNNscore 0.830031574
REMARK CNNaffinity 5.85043669
REMARK SMILES C#CCN(C)Cc1ccccc1
REMARK SMILES IDX 4 1 5 2 3 3 2 4 1 5 6 6 7 7 8 8 12 9 9 10 11 11 10 12
REMARK H PARENT
ROOT
ATOM      1  N   UNL     1      54.317 151.812  25.756  1.00  0.00    -0.291 NA
ATOM      2  C   UNL     1      55.595 152.528  25.844  1.00  0.00     0.106 C 
ENDROOT
BRANCH   1   3
ATOM      3  C   UNL     1      54.176 151.150  24.449  1.00  0.00     0.174 C 
ATOM      4  C   UNL     1      54.073 149.687  24.581  1.00  0.00    -0.091 C 
ATOM      5  C   UNL     1      53.984 148.493  24.684  1.00  0.00     0.005 C 
ENDBRANCH   1   3
BRANCH   1   6
ATOM      6  C   UNL     1      53.186 152.737  25.962  1.00  0.00     0.120 C 
BRANCH   6   7
ATOM      7  C   UNL     1      53.518 154.184  25.659  1.00  0.00    -0.034 A 
ATOM      8  C   UNL     1      54.351 154.514  24.579  1.00  0.00     0.005 A 
ATOM      9  C   UNL     1      53.022 155.216  26.470  1.00  0.00     0.005 A 
ATOM     10  C   UNL     1      54.674 155.844  24.310  1.00  0.00     0.000 A 
ATOM     11  C   UNL     1      53.347 156.546  26.200  1.00  0.00     0.000 A 
ATOM     12  C   UNL     1      54.172 156.860  25.122  1.00  0.00     0.000 A 
ENDBRANCH   6   7
ENDBRANCH   1   6
TORSDOF 3
ENDMDL
MODEL 2
REMARK minimizedAffinity -6.75901556
REMARK CNNscore 0.820030272
REMARK CNNaffinity 5.49870491
REMARK SMILES C#CCN(C)Cc1ccccc1
REMARK SMILES IDX 4 1 5 2 3 3 2 4 1 5 6 6 7 7 8 8 12 9 9 10 11 11 10 12
REMARK H PARENT
ROOT
ATOM      1  N   UNL     1      54.202 153.185  24.917  1.00  0.00    -0.291 NA
ATOM      2  C   UNL     1      55.556 153.749  24.892  1.00  0.00     0.106 C 
ENDROOT
BRANCH   1   3
ATOM      3  C   UNL     1      54.031 152.185  23.851  1.00  0.00     0.174 C 
ATOM      4  C   UNL     1      54.102 150.809  24.369  1.00  0.00    -0.091 C 
ATOM      5  C   UNL     1      54.155 149.684  24.788  1.00  0.00     0.005 C 
ENDBRANCH   1   3
BRANCH   1   6
ATOM      6  C   UNL     1      53.191 154.249  24.760  1.00  0.00     0.120 C 
BRANCH   6   7
ATOM      7  C   UNL     1      52.779 154.898  26.066  1.00  0.00    -0.034 A 
ATOM      8  C   UNL     1      53.093 156.241  26.324  1.00  0.00     0.005 A 
ATOM      9  C   UNL     1      52.107 154.159  27.050  1.00  0.00     0.005 A 
ATOM     10  C   UNL     1      52.733 156.835  27.534  1.00  0.00     0.000 A 
ATOM     11  C   UNL     1      51.749 154.754  28.261  1.00  0.00     0.000 A 
ATOM     12  C   UNL     1      52.060 156.091  28.503  1.00  0.00     0.000 A 
ENDBRANCH   6   7
ENDBRANCH   1   6
TORSDOF 3
ENDMDL
MODEL 3
REMARK minimizedAffinity -6.97129536
REMARK CNNscore 0.805194497
REMARK CNNaffinity 5.36276627
REMARK SMILES C#CCN(C)Cc1ccccc1
REMARK SMILES IDX 4 1 5 2 3 3 2 4 1 5 6 6 7 7 8 8 12 9 9 10 11 11 10 12
REMARK H PARENT
ROOT
ATOM      1  N   UNL     1      53.682 153.439  25.149  1.00  0.00    -0.291 NA
ATOM      2  C   UNL     1      54.067 153.151  23.763  1.00  0.00     0.106 C 
ENDROOT
BRANCH   1   3
ATOM      3  C   UNL     1      53.315 152.204  25.860  1.00  0.00     0.174 C 
ATOM      4  C   UNL     1      53.822 151.003  25.175  1.00  0.00    -0.091 C 
ATOM      5  C   UNL     1      54.237 150.020  24.621  1.00  0.00     0.005 C 
ENDBRANCH   1   3
BRANCH   1   6
ATOM      6  C   UNL     1      52.548 154.384  25.190  1.00  0.00     0.120 C 
BRANCH   6   7
ATOM      7  C   UNL     1      52.400 155.103  26.516  1.00  0.00    -0.034 A 
ATOM      8  C   UNL     1      51.647 154.534  27.555  1.00  0.00     0.005 A 
ATOM      9  C   UNL     1      52.985 156.361  26.716  1.00  0.00     0.005 A 
ATOM     10  C   UNL     1      51.493 155.202  28.769  1.00  0.00     0.000 A 
ATOM     11  C   UNL     1      52.829 157.030  27.931  1.00  0.00     0.000 A 
ATOM     12  C   UNL     1      52.084 156.451  28.957  1.00  0.00     0.000 A 
ENDBRANCH   6   7
ENDBRANCH   1   6
TORSDOF 3
ENDMDL
MODEL 4
REMARK minimizedAffinity -6.14790154
REMARK CNNscore 0.80001241
REMARK CNNaffinity 4.70570898
REMARK SMILES C#CCN(C)Cc1ccccc1
REMARK SMILES IDX 4 1 5 2 3 3 2 4 1 5 6 6 7 7 8 8 12 9 9 10 11 11 10 12
REMARK H PARENT
ROOT
ATOM      1  N   UNL     1      51.185 158.318  30.088  1.00  0.00    -0.291 NA
ATOM      2  C   UNL     1      52.354 158.158  29.216  1.00  0.00     0.106 C 
ENDROOT
BRANCH   1   3
ATOM      3  C   UNL     1      50.228 157.218  29.889  1.00  0.00     0.174 C 
ATOM      4  C   UNL     1      50.906 155.927  29.686  1.00  0.00    -0.091 C 
ATOM      5  C   UNL     1      51.455 154.871  29.523  1.00  0.00     0.005 C 
ENDBRANCH   1   3
BRANCH   1   6
ATOM      6  C   UNL     1      50.513 159.607  29.829  1.00  0.00     0.120 C 
BRANCH   6   7
ATOM      7  C   UNL     1      49.842 160.202  31.050  1.00  0.00    -0.034 A 
ATOM      8  C   UNL     1      48.469 160.016  31.271  1.00  0.00     0.005 A 
ATOM      9  C   UNL     1      50.575 160.975  31.963  1.00  0.00     0.005 A 
ATOM     10  C   UNL     1      47.846 160.579  32.385  1.00  0.00     0.000 A 
ATOM     11  C   UNL     1      49.949 161.539  33.075  1.00  0.00     0.000 A 
ATOM     12  C   UNL     1      48.586 161.342  33.287  1.00  0.00     0.000 A 
ENDBRANCH   6   7
ENDBRANCH   1   6
TORSDOF 3
ENDMDL
MODEL 5
REMARK minimizedAffinity -5.96764755
REMARK CNNscore 0.78165406
REMARK CNNaffinity 5.65783501
REMARK SMILES C#CCN(C)Cc1ccccc1
REMARK SMILES IDX 4 1 5 2 3 3 2 4 1 5 6 6 7 7 8 8 12 9 9 10 11 11 10 12
REMARK H PARENT
ROOT
ATOM      1  N   UNL     1      52.389 152.004  26.377  1.00  0.00    -0.291 NA
ATOM      2  C   UNL     1      51.793 152.406  27.657  1.00  0.00     0.106 C 
ENDROOT
BRANCH   1   3
ATOM      3  C   UNL     1      52.360 150.541  26.222  1.00  0.00     0.174 C 
ATOM      4  C   UNL     1      53.404 150.064  25.300  1.00  0.00    -0.091 C 
ATOM      5  C   UNL     1      54.257 149.669  24.551  1.00  0.00     0.005 C 
ENDBRANCH   1   3
BRANCH   1   6
ATOM      6  C   UNL     1      53.783 152.481  26.278  1.00  0.00     0.120 C 
BRANCH   6   7
ATOM      7  C   UNL     1      53.906 153.912  25.796  1.00  0.00    -0.034 A 
ATOM      8  C   UNL     1      53.061 154.911  26.305  1.00  0.00     0.005 A 
ATOM      9  C   UNL     1      54.843 154.256  24.812  1.00  0.00     0.005 A 
ATOM     10  C   UNL     1      53.159 156.225  25.848  1.00  0.00     0.000 A 
ATOM     11  C   UNL     1      54.939 155.572  24.355  1.00  0.00     0.000 A 
ATOM     12  C   UNL     1      54.099 156.555  24.872  1.00  0.00     0.000 A 
ENDBRANCH   6   7
ENDBRANCH   1   6
TORSDOF 3
ENDMDL
MODEL 6
REMARK minimizedAffinity -5.63997412
REMARK CNNscore 0.76079601
REMARK CNNaffinity 5.14572954
REMARK SMILES C#CCN(C)Cc1ccccc1
REMARK SMILES IDX 4 1 5 2 3 3 2 4 1 5 6 6 7 7 8 8 12 9 9 10 11 11 10 12
REMARK H PARENT
ROOT
ATOM      1  N   UNL     1      53.759 153.767  24.834  1.00  0.00    -0.291 NA
ATOM      2  C   UNL     1      54.609 154.135  23.696  1.00  0.00     0.106 C 
ENDROOT
BRANCH   1   3
ATOM      3  C   UNL     1      53.398 154.954  25.625  1.00  0.00     0.174 C 
ATOM      4  C   UNL     1      52.374 154.651  26.638  1.00  0.00    -0.091 C 
ATOM      5  C   UNL     1      51.541 154.408  27.469  1.00  0.00     0.005 C 
ENDBRANCH   1   3
BRANCH   1   6
ATOM      6  C   UNL     1      54.444 152.788  25.702  1.00  0.00     0.120 C 
BRANCH   6   7
ATOM      7  C   UNL     1      53.938 151.369  25.540  1.00  0.00    -0.034 A 
ATOM      8  C   UNL     1      54.614 150.461  24.711  1.00  0.00     0.005 A 
ATOM      9  C   UNL     1      52.768 150.949  26.190  1.00  0.00     0.005 A 
ATOM     10  C   UNL     1      54.138 149.160  24.545  1.00  0.00     0.000 A 
ATOM     11  C   UNL     1      52.293 149.648  26.022  1.00  0.00     0.000 A 
ATOM     12  C   UNL     1      52.977 148.754  25.201  1.00  0.00     0.000 A 
ENDBRANCH   6   7
ENDBRANCH   1   6
TORSDOF 3
ENDMDL
MODEL 7
REMARK minimizedAffinity -6.33876324
REMARK CNNscore 0.753179014
REMARK CNNaffinity 5.03442383
REMARK SMILES C#CCN(C)Cc1ccccc1
REMARK SMILES IDX 4 1 5 2 3 3 2 4 1 5 6 6 7 7 8 8 12 9 9 10 11 11 10 12
REMARK H PARENT
ROOT
ATOM      1  N   UNL     1      52.167 154.442  26.640  1.00  0.00    -0.291 NA
ATOM      2  C   UNL     1      52.233 152.993  26.419  1.00  0.00     0.106 C 
ENDROOT
BRANCH   1   3
ATOM      3  C   UNL     1      52.832 155.170  25.548  1.00  0.00     0.174 C 
ATOM      4  C   UNL     1      53.488 154.258  24.596  1.00  0.00    -0.091 C 
ATOM      5  C   UNL     1      54.022 153.517  23.816  1.00  0.00     0.005 C 
ENDBRANCH   1   3
BRANCH   1   6
ATOM      6  C   UNL     1      52.797 154.803  27.926  1.00  0.00     0.120 C 
BRANCH   6   7
ATOM      7  C   UNL     1      52.099 155.936  28.650  1.00  0.00    -0.034 A 
ATOM      8  C   UNL     1      50.866 155.723  29.286  1.00  0.00     0.005 A 
ATOM      9  C   UNL     1      52.657 157.222  28.671  1.00  0.00     0.005 A 
ATOM     10  C   UNL     1      50.212 156.770  29.937  1.00  0.00     0.000 A 
ATOM     11  C   UNL     1      52.001 158.268  29.322  1.00  0.00     0.000 A 
ATOM     12  C   UNL     1      50.780 158.043  29.955  1.00  0.00     0.000 A 
ENDBRANCH   6   7
ENDBRANCH   1   6
TORSDOF 3
ENDMDL
MODEL 8
REMARK minimizedAffinity -5.61546183
REMARK CNNscore 0.746889889
REMARK CNNaffinity 4.86306524
REMARK SMILES C#CCN(C)Cc1ccccc1
REMARK SMILES IDX 4 1 5 2 3 3 2 4 1 5 6 6 7 7 8 8 12 9 9 10 11 11 10 12
REMARK H PARENT
ROOT
ATOM      1  N   UNL     1      53.053 154.714  24.860  1.00  0.00    -0.291 NA
ATOM      2  C   UNL     1      54.096 154.123  24.014  1.00  0.00     0.106 C 
ENDROOT
BRANCH   1   3
ATOM      3  C   UNL     1      53.544 155.932  25.524  1.00  0.00     0.174 C 
ATOM      4  C   UNL     1      54.468 156.693  24.666  1.00  0.00    -0.091 C 
ATOM      5  C   UNL     1      55.220 157.319  23.968  1.00  0.00     0.005 C 
ENDBRANCH   1   3
BRANCH   1   6
ATOM      6  C   UNL     1      52.598 153.749  25.879  1.00  0.00     0.120 C 
BRANCH   6   7
ATOM      7  C   UNL     1      53.030 152.322  25.605  1.00  0.00    -0.034 A 
ATOM      8  C   UNL     1      54.152 152.058  24.805  1.00  0.00     0.005 A 
ATOM      9  C   UNL     1      52.298 151.243  26.120  1.00  0.00     0.005 A 
ATOM     10  C   UNL     1      54.540 150.746  24.535  1.00  0.00     0.000 A 
ATOM     11  C   UNL     1      52.686 149.930  25.848  1.00  0.00     0.000 A 
ATOM     12  C   UNL     1      53.806 149.681  25.056  1.00  0.00     0.000 A 
ENDBRANCH   6   7
ENDBRANCH   1   6
TORSDOF 3
ENDMDL
MODEL 9
REMARK minimizedAffinity -6.40643358
REMARK CNNscore 0.73929739
REMARK CNNaffinity 5.16501379
REMARK SMILES C#CCN(C)Cc1ccccc1
REMARK SMILES IDX 4 1 5 2 3 3 2 4 1 5 6 6 7 7 8 8 12 9 9 10 11 11 10 12
REMARK H PARENT
ROOT
ATOM      1  N   UNL     1      52.362 153.180  26.394  1.00  0.00    -0.291 NA
ATOM      2  C   UNL     1      52.188 152.880  27.820  1.00  0.00     0.106 C 
ENDROOT
BRANCH   1   3
ATOM      3  C   UNL     1      53.493 152.423  25.833  1.00  0.00     0.174 C 
ATOM      4  C   UNL     1      53.890 152.927  24.507  1.00  0.00    -0.091 C 
ATOM      5  C   UNL     1      54.220 153.337  23.427  1.00  0.00     0.005 C 
ENDBRANCH   1   3
BRANCH   1   6
ATOM      6  C   UNL     1      52.588 154.624  26.188  1.00  0.00     0.120 C 
BRANCH   6   7
ATOM      7  C   UNL     1      52.198 155.478  27.378  1.00  0.00    -0.034 A 
ATOM      8  C   UNL     1      52.848 156.698  27.623  1.00  0.00     0.005 A 
ATOM      9  C   UNL     1      51.205 155.050  28.270  1.00  0.00     0.005 A 
ATOM     10  C   UNL     1      52.504 157.476  28.729  1.00  0.00     0.000 A 
ATOM     11  C   UNL     1      50.863 155.829  29.376  1.00  0.00     0.000 A 
ATOM     12  C   UNL     1      51.512 157.041  29.606  1.00  0.00     0.000 A 
ENDBRANCH   6   7
ENDBRANCH   1   6
TORSDOF 3
ENDMDL
