MODEL 1
REMARK VINA RESULT:      -7.9      0.000      0.000
REMARK SMILES C=CC(=O)N1CCC[C@H](Oc2cc(-c3cc(F)c(O)cc3CC)cn3cncc23)C1
REMARK SMILES IDX 11 1 12 2 13 3 24 4 25 5 26 6 27 7 28 8 29 9 10 10 9 11 5 12
REMARK SMILES IDX 6 13 30 14 7 15 8 16 3 17 4 18 2 19 1 20 14 21 15 22 21 23
REMARK SMILES IDX 16 24 20 25 18 26 17 27 22 28 23 29 19 30
REMARK H PARENT 19 31
ROOT
ATOM      1  C   UNL     1      15.633  14.581   5.667  1.00  0.00     0.146 A 
ATOM      2  C   UNL     1      14.577  14.063   5.011  1.00  0.00     0.059 A 
ATOM      3  C   UNL     1      14.742  13.180   3.854  1.00  0.00     0.002 A 
ATOM      4  C   UNL     1      15.996  12.864   3.472  1.00  0.00     0.101 A 
ATOM      5  N   UNL     1      17.078  13.375   4.185  1.00  0.00    -0.302 N 
ATOM      6  C   UNL     1      18.425  13.181   4.000  1.00  0.00     0.204 A 
ATOM      7  N   UNL     1      19.147  13.822   4.893  1.00  0.00    -0.244 NA
ATOM      8  C   UNL     1      18.237  14.461   5.699  1.00  0.00     0.143 A 
ATOM      9  C   UNL     1      16.949  14.217   5.278  1.00  0.00     0.107 A 
ENDROOT
BRANCH   1  10
ATOM     10  O   UNL     1      15.496  15.370   6.784  1.00  0.00    -0.486 OA
BRANCH  10  11
ATOM     11  C   UNL     1      15.110  16.719   6.467  1.00  0.00     0.193 C 
ATOM     12  N   UNL     1      16.120  19.020   6.382  1.00  0.00    -0.335 N 
ATOM     13  C   UNL     1      15.111  19.535   7.307  1.00  0.00     0.120 C 
ATOM     14  C   UNL     1      16.385  17.579   6.455  1.00  0.00     0.164 C 
ATOM     15  C   UNL     1      13.831  18.708   7.298  1.00  0.00     0.025 C 
ATOM     16  C   UNL     1      14.127  17.231   7.522  1.00  0.00     0.049 C 
BRANCH  12  17
ATOM     17  C   UNL     1      16.973  19.956   5.803  1.00  0.00     0.246 C 
ATOM     18  O   UNL     1      18.048  19.651   5.289  1.00  0.00    -0.270 OA
BRANCH  17  19
ATOM     19  C   UNL     1      16.542  21.380   5.810  1.00  0.00     0.063 C 
ATOM     20  C   UNL     1      15.946  21.906   4.732  1.00  0.00     0.014 C 
ENDBRANCH  17  19
ENDBRANCH  12  17
ENDBRANCH  10  11
ENDBRANCH   1  10
BRANCH   3  21
ATOM     21  C   UNL     1      13.603  12.633   3.096  1.00  0.00    -0.010 A 
ATOM     22  C   UNL     1      12.994  13.467   2.144  1.00  0.00     0.052 A 
ATOM     23  C   UNL     1      13.102  11.328   3.308  1.00  0.00    -0.036 A 
ATOM     24  C   UNL     1      11.911  13.004   1.409  1.00  0.00     0.165 A 
ATOM     25  C   UNL     1      12.006  10.883   2.543  1.00  0.00     0.053 A 
ATOM     26  C   UNL     1      11.419  11.721   1.604  1.00  0.00     0.151 A 
ATOM     27  F   UNL     1      11.332  13.802   0.500  1.00  0.00    -0.203 F 
BRANCH  23  28
ATOM     28  C   UNL     1      13.710  10.367   4.309  1.00  0.00     0.033 C 
ATOM     29  C   UNL     1      14.494   9.255   3.629  1.00  0.00     0.009 C 
ENDBRANCH  23  28
BRANCH  26  30
ATOM     30  O   UNL     1      10.356  11.256   0.886  1.00  0.00    -0.505 OA
ATOM     31  H   UNL     1      10.540  10.321   0.678  1.00  0.00     0.293 HD
ENDBRANCH  26  30
ENDBRANCH   3  21
TORSDOF 7
ENDMDL
MODEL 2
REMARK VINA RESULT:      -7.8      1.152      2.072
REMARK SMILES C=CC(=O)N1CCC[C@H](Oc2cc(-c3cc(F)c(O)cc3CC)cn3cncc23)C1
REMARK SMILES IDX 11 1 12 2 13 3 24 4 25 5 26 6 27 7 28 8 29 9 10 10 9 11 5 12
REMARK SMILES IDX 6 13 30 14 7 15 8 16 3 17 4 18 2 19 1 20 14 21 15 22 21 23
REMARK SMILES IDX 16 24 20 25 18 26 17 27 22 28 23 29 19 30
REMARK H PARENT 19 31
ROOT
ATOM      1  C   UNL     1      15.794  14.444   5.770  1.00  0.00     0.146 A 
ATOM      2  C   UNL     1      14.726  13.998   5.082  1.00  0.00     0.059 A 
ATOM      3  C   UNL     1      14.860  13.059   3.966  1.00  0.00     0.002 A 
ATOM      4  C   UNL     1      16.096  12.616   3.656  1.00  0.00     0.101 A 
ATOM      5  N   UNL     1      17.187  13.055   4.402  1.00  0.00    -0.302 N 
ATOM      6  C   UNL     1      18.517  12.732   4.289  1.00  0.00     0.204 A 
ATOM      7  N   UNL     1      19.254  13.340   5.193  1.00  0.00    -0.244 NA
ATOM      8  C   UNL     1      18.372  14.089   5.931  1.00  0.00     0.143 A 
ATOM      9  C   UNL     1      17.087  13.948   5.458  1.00  0.00     0.107 A 
ENDROOT
BRANCH   1  10
ATOM     10  O   UNL     1      15.681  15.285   6.850  1.00  0.00    -0.486 OA
BRANCH  10  11
ATOM     11  C   UNL     1      15.390  16.642   6.470  1.00  0.00     0.193 C 
ATOM     12  N   UNL     1      16.580  18.836   6.175  1.00  0.00    -0.335 N 
ATOM     13  C   UNL     1      15.682  19.492   7.124  1.00  0.00     0.120 C 
ATOM     14  C   UNL     1      16.728  17.384   6.326  1.00  0.00     0.164 C 
ATOM     15  C   UNL     1      14.338  18.781   7.246  1.00  0.00     0.025 C 
ATOM     16  C   UNL     1      14.524  17.300   7.547  1.00  0.00     0.049 C 
BRANCH  12  17
ATOM     17  C   UNL     1      17.469  19.657   5.486  1.00  0.00     0.246 C 
ATOM     18  O   UNL     1      18.659  19.380   5.342  1.00  0.00    -0.270 OA
BRANCH  17  19
ATOM     19  C   UNL     1      16.933  20.916   4.901  1.00  0.00     0.063 C 
ATOM     20  C   UNL     1      17.487  22.093   5.219  1.00  0.00     0.014 C 
ENDBRANCH  17  19
ENDBRANCH  12  17
ENDBRANCH  10  11
ENDBRANCH   1  10
BRANCH   3  21
ATOM     21  C   UNL     1      13.711  12.589   3.172  1.00  0.00    -0.010 A 
ATOM     22  C   UNL     1      13.399  11.220   3.228  1.00  0.00     0.052 A 
ATOM     23  C   UNL     1      12.941  13.452   2.359  1.00  0.00    -0.036 A 
ATOM     24  C   UNL     1      12.331  10.723   2.492  1.00  0.00     0.165 A 
ATOM     25  C   UNL     1      11.861  12.921   1.628  1.00  0.00     0.053 A 
ATOM     26  C   UNL     1      11.566  11.565   1.698  1.00  0.00     0.151 A 
ATOM     27  F   UNL     1      12.034   9.417   2.546  1.00  0.00    -0.203 F 
BRANCH  23  28
ATOM     28  C   UNL     1      13.211  14.938   2.254  1.00  0.00     0.033 C 
ATOM     29  C   UNL     1      12.115  15.764   2.912  1.00  0.00     0.009 C 
ENDBRANCH  23  28
BRANCH  26  30
ATOM     30  O   UNL     1      10.513  11.086   0.972  1.00  0.00    -0.505 OA
ATOM     31  H   UNL     1      10.886  10.667   0.173  1.00  0.00     0.293 HD
ENDBRANCH  26  30
ENDBRANCH   3  21
TORSDOF 7
ENDMDL
MODEL 3
REMARK VINA RESULT:      -7.7      2.978      4.983
REMARK SMILES C=CC(=O)N1CCC[C@H](Oc2cc(-c3cc(F)c(O)cc3CC)cn3cncc23)C1
REMARK SMILES IDX 11 1 12 2 13 3 24 4 25 5 26 6 27 7 28 8 29 9 10 10 9 11 5 12
REMARK SMILES IDX 6 13 30 14 7 15 8 16 3 17 4 18 2 19 1 20 14 21 15 22 21 23
REMARK SMILES IDX 16 24 20 25 18 26 17 27 22 28 23 29 19 30
REMARK H PARENT 19 31
ROOT
ATOM      1  C   UNL     1      17.928  10.233   4.449  1.00  0.00     0.146 A 
ATOM      2  C   UNL     1      16.775  10.638   3.882  1.00  0.00     0.059 A 
ATOM      3  C   UNL     1      15.563   9.817   3.922  1.00  0.00     0.002 A 
ATOM      4  C   UNL     1      15.616   8.640   4.579  1.00  0.00     0.101 A 
ATOM      5  N   UNL     1      16.804   8.253   5.194  1.00  0.00    -0.302 N 
ATOM      6  C   UNL     1      17.090   7.126   5.925  1.00  0.00     0.204 A 
ATOM      7  N   UNL     1      18.330   7.120   6.365  1.00  0.00    -0.244 NA
ATOM      8  C   UNL     1      18.879   8.291   5.906  1.00  0.00     0.143 A 
ATOM      9  C   UNL     1      17.966   9.008   5.165  1.00  0.00     0.107 A 
ENDROOT
BRANCH   1  10
ATOM     10  O   UNL     1      19.059  11.013   4.463  1.00  0.00    -0.486 OA
BRANCH  10  11
ATOM     11  C   UNL     1      18.937  12.155   5.329  1.00  0.00     0.193 C 
ATOM     12  N   UNL     1      19.266  14.646   5.257  1.00  0.00    -0.335 N 
ATOM     13  C   UNL     1      20.206  14.590   6.376  1.00  0.00     0.120 C 
ATOM     14  C   UNL     1      19.128  13.415   4.470  1.00  0.00     0.164 C 
ATOM     15  C   UNL     1      20.000  13.360   7.252  1.00  0.00     0.025 C 
ATOM     16  C   UNL     1      20.005  12.084   6.423  1.00  0.00     0.049 C 
BRANCH  12  17
ATOM     17  C   UNL     1      18.887  15.913   4.822  1.00  0.00     0.246 C 
ATOM     18  O   UNL     1      19.646  16.880   4.840  1.00  0.00    -0.270 OA
BRANCH  17  19
ATOM     19  C   UNL     1      17.499  16.079   4.309  1.00  0.00     0.063 C 
ATOM     20  C   UNL     1      16.624  16.841   4.978  1.00  0.00     0.014 C 
ENDBRANCH  17  19
ENDBRANCH  12  17
ENDBRANCH  10  11
ENDBRANCH   1  10
BRANCH   3  21
ATOM     21  C   UNL     1      14.301  10.220   3.276  1.00  0.00    -0.010 A 
ATOM     22  C   UNL     1      13.846   9.444   2.197  1.00  0.00     0.052 A 
ATOM     23  C   UNL     1      13.561  11.352   3.687  1.00  0.00    -0.036 A 
ATOM     24  C   UNL     1      12.668   9.786   1.546  1.00  0.00     0.165 A 
ATOM     25  C   UNL     1      12.367  11.672   3.012  1.00  0.00     0.053 A 
ATOM     26  C   UNL     1      11.932  10.891   1.950  1.00  0.00     0.151 A 
ATOM     27  F   UNL     1      12.235   9.044   0.517  1.00  0.00    -0.203 F 
BRANCH  23  28
ATOM     28  C   UNL     1      13.983  12.232   4.846  1.00  0.00     0.033 C 
ATOM     29  C   UNL     1      14.264  13.661   4.403  1.00  0.00     0.009 C 
ENDBRANCH  23  28
BRANCH  26  30
ATOM     30  O   UNL     1      10.772  11.234   1.317  1.00  0.00    -0.505 OA
ATOM     31  H   UNL     1      10.059  11.180   1.982  1.00  0.00     0.293 HD
ENDBRANCH  26  30
ENDBRANCH   3  21
TORSDOF 7
ENDMDL
MODEL 4
REMARK VINA RESULT:      -7.6      2.884      4.018
REMARK SMILES C=CC(=O)N1CCC[C@H](Oc2cc(-c3cc(F)c(O)cc3CC)cn3cncc23)C1
REMARK SMILES IDX 11 1 12 2 13 3 24 4 25 5 26 6 27 7 28 8 29 9 10 10 9 11 5 12
REMARK SMILES IDX 6 13 30 14 7 15 8 16 3 17 4 18 2 19 1 20 14 21 15 22 21 23
REMARK SMILES IDX 16 24 20 25 18 26 17 27 22 28 23 29 19 30
REMARK H PARENT 19 31
ROOT
ATOM      1  C   UNL     1      15.670  11.641   5.463  1.00  0.00     0.146 A 
ATOM      2  C   UNL     1      14.867  12.313   4.616  1.00  0.00     0.059 A 
ATOM      3  C   UNL     1      14.251  11.667   3.455  1.00  0.00     0.002 A 
ATOM      4  C   UNL     1      14.485  10.352   3.264  1.00  0.00     0.101 A 
ATOM      5  N   UNL     1      15.286   9.661   4.170  1.00  0.00    -0.302 N 
ATOM      6  C   UNL     1      15.643   8.335   4.195  1.00  0.00     0.204 A 
ATOM      7  N   UNL     1      16.405   8.045   5.228  1.00  0.00    -0.244 NA
ATOM      8  C   UNL     1      16.552   9.228   5.909  1.00  0.00     0.143 A 
ATOM      9  C   UNL     1      15.884  10.250   5.273  1.00  0.00     0.107 A 
ENDROOT
BRANCH   1  10
ATOM     10  O   UNL     1      16.214  12.220   6.584  1.00  0.00    -0.486 OA
BRANCH  10  11
ATOM     11  C   UNL     1      16.471  13.625   6.415  1.00  0.00     0.193 C 
ATOM     12  N   UNL     1      18.062  15.385   7.246  1.00  0.00    -0.335 N 
ATOM     13  C   UNL     1      16.954  16.209   7.729  1.00  0.00     0.120 C 
ATOM     14  C   UNL     1      17.793  13.947   7.131  1.00  0.00     0.164 C 
ATOM     15  C   UNL     1      15.647  15.919   6.999  1.00  0.00     0.025 C 
ATOM     16  C   UNL     1      15.321  14.432   7.022  1.00  0.00     0.049 C 
BRANCH  12  17
ATOM     17  C   UNL     1      19.332  15.954   7.297  1.00  0.00     0.246 C 
ATOM     18  O   UNL     1      20.080  15.831   8.265  1.00  0.00    -0.270 OA
BRANCH  17  19
ATOM     19  C   UNL     1      19.786  16.734   6.114  1.00  0.00     0.063 C 
ATOM     20  C   UNL     1      19.266  16.484   4.905  1.00  0.00     0.014 C 
ENDBRANCH  17  19
ENDBRANCH  12  17
ENDBRANCH  10  11
ENDBRANCH   1  10
BRANCH   3  21
ATOM     21  C   UNL     1      13.401  12.390   2.493  1.00  0.00    -0.010 A 
ATOM     22  C   UNL     1      12.199  11.780   2.100  1.00  0.00     0.052 A 
ATOM     23  C   UNL     1      13.762  13.644   1.949  1.00  0.00    -0.036 A 
ATOM     24  C   UNL     1      11.365  12.414   1.189  1.00  0.00     0.165 A 
ATOM     25  C   UNL     1      12.895  14.267   1.031  1.00  0.00     0.053 A 
ATOM     26  C   UNL     1      11.708  13.650   0.657  1.00  0.00     0.151 A 
ATOM     27  F   UNL     1      10.217  11.831   0.815  1.00  0.00    -0.203 F 
BRANCH  23  28
ATOM     28  C   UNL     1      15.037  14.368   2.329  1.00  0.00     0.033 C 
ATOM     29  C   UNL     1      15.714  15.002   1.122  1.00  0.00     0.009 C 
ENDBRANCH  23  28
BRANCH  26  30
ATOM     30  O   UNL     1      10.895  14.282  -0.238  1.00  0.00    -0.505 OA
ATOM     31  H   UNL     1       9.996  14.278   0.141  1.00  0.00     0.293 HD
ENDBRANCH  26  30
ENDBRANCH   3  21
TORSDOF 7
ENDMDL
MODEL 5
REMARK VINA RESULT:      -7.5      3.335      7.602
REMARK SMILES C=CC(=O)N1CCC[C@H](Oc2cc(-c3cc(F)c(O)cc3CC)cn3cncc23)C1
REMARK SMILES IDX 11 1 12 2 13 3 24 4 25 5 26 6 27 7 28 8 29 9 10 10 9 11 5 12
REMARK SMILES IDX 6 13 30 14 7 15 8 16 3 17 4 18 2 19 1 20 14 21 15 22 21 23
REMARK SMILES IDX 16 24 20 25 18 26 17 27 22 28 23 29 19 30
REMARK H PARENT 19 31
ROOT
ATOM      1  C   UNL     1      14.171  10.955   3.313  1.00  0.00     0.146 A 
ATOM      2  C   UNL     1      14.791  12.019   3.860  1.00  0.00     0.059 A 
ATOM      3  C   UNL     1      14.324  13.388   3.632  1.00  0.00     0.002 A 
ATOM      4  C   UNL     1      13.221  13.564   2.876  1.00  0.00     0.101 A 
ATOM      5  N   UNL     1      12.568  12.453   2.350  1.00  0.00    -0.302 N 
ATOM      6  C   UNL     1      11.433  12.382   1.579  1.00  0.00     0.204 A 
ATOM      7  N   UNL     1      11.108  11.141   1.287  1.00  0.00    -0.244 NA
ATOM      8  C   UNL     1      12.066  10.367   1.892  1.00  0.00     0.143 A 
ATOM      9  C   UNL     1      12.992  11.147   2.545  1.00  0.00     0.107 A 
ENDROOT
BRANCH   1  10
ATOM     10  O   UNL     1      14.566   9.662   3.557  1.00  0.00    -0.486 OA
BRANCH  10  11
ATOM     11  C   UNL     1      15.562   9.570   4.591  1.00  0.00     0.193 C 
ATOM     12  N   UNL     1      18.047   9.825   4.871  1.00  0.00    -0.335 N 
ATOM     13  C   UNL     1      18.161   8.468   5.406  1.00  0.00     0.120 C 
ATOM     14  C   UNL     1      16.889  10.081   4.007  1.00  0.00     0.164 C 
ATOM     15  C   UNL     1      16.857   7.969   6.019  1.00  0.00     0.025 C 
ATOM     16  C   UNL     1      15.698   8.115   5.042  1.00  0.00     0.049 C 
BRANCH  12  17
ATOM     17  C   UNL     1      19.194  10.613   4.917  1.00  0.00     0.246 C 
ATOM     18  O   UNL     1      20.214  10.344   4.285  1.00  0.00    -0.270 OA
BRANCH  17  19
ATOM     19  C   UNL     1      19.159  11.834   5.767  1.00  0.00     0.063 C 
ATOM     20  C   UNL     1      18.460  12.906   5.373  1.00  0.00     0.014 C 
ENDBRANCH  17  19
ENDBRANCH  12  17
ENDBRANCH  10  11
ENDBRANCH   1  10
BRANCH   3  21
ATOM     21  C   UNL     1      15.008  14.570   4.187  1.00  0.00    -0.010 A 
ATOM     22  C   UNL     1      14.527  15.091   5.399  1.00  0.00     0.052 A 
ATOM     23  C   UNL     1      16.099  15.193   3.539  1.00  0.00    -0.036 A 
ATOM     24  C   UNL     1      15.130  16.209   5.960  1.00  0.00     0.165 A 
ATOM     25  C   UNL     1      16.695  16.322   4.134  1.00  0.00     0.053 A 
ATOM     26  C   UNL     1      16.207  16.822   5.334  1.00  0.00     0.151 A 
ATOM     27  F   UNL     1      14.670  16.705   7.118  1.00  0.00    -0.203 F 
BRANCH  23  28
ATOM     28  C   UNL     1      16.679  14.686   2.235  1.00  0.00     0.033 C 
ATOM     29  C   UNL     1      15.957  15.265   1.027  1.00  0.00     0.009 C 
ENDBRANCH  23  28
BRANCH  26  30
ATOM     30  O   UNL     1      16.807  17.920   5.879  1.00  0.00    -0.505 OA
ATOM     31  H   UNL     1      17.630  17.613   6.303  1.00  0.00     0.293 HD
ENDBRANCH  26  30
ENDBRANCH   3  21
TORSDOF 7
ENDMDL
MODEL 6
REMARK VINA RESULT:      -7.2      2.738      5.637
REMARK SMILES C=CC(=O)N1CCC[C@H](Oc2cc(-c3cc(F)c(O)cc3CC)cn3cncc23)C1
REMARK SMILES IDX 11 1 12 2 13 3 24 4 25 5 26 6 27 7 28 8 29 9 10 10 9 11 5 12
REMARK SMILES IDX 6 13 30 14 7 15 8 16 3 17 4 18 2 19 1 20 14 21 15 22 21 23
REMARK SMILES IDX 16 24 20 25 18 26 17 27 22 28 23 29 19 30
REMARK H PARENT 19 31
ROOT
ATOM      1  C   UNL     1      17.023  14.191   4.454  1.00  0.00     0.146 A 
ATOM      2  C   UNL     1      16.307  13.251   3.807  1.00  0.00     0.059 A 
ATOM      3  C   UNL     1      14.973  12.849   4.257  1.00  0.00     0.002 A 
ATOM      4  C   UNL     1      14.452  13.473   5.333  1.00  0.00     0.101 A 
ATOM      5  N   UNL     1      15.188  14.471   5.968  1.00  0.00    -0.302 N 
ATOM      6  C   UNL     1      14.863  15.248   7.052  1.00  0.00     0.204 A 
ATOM      7  N   UNL     1      15.816  16.103   7.353  1.00  0.00    -0.244 NA
ATOM      8  C   UNL     1      16.805  15.879   6.428  1.00  0.00     0.143 A 
ATOM      9  C   UNL     1      16.454  14.865   5.566  1.00  0.00     0.107 A 
ENDROOT
BRANCH   1  10
ATOM     10  O   UNL     1      18.255  14.614   4.016  1.00  0.00    -0.486 OA
BRANCH  10  11
ATOM     11  C   UNL     1      19.331  13.799   4.510  1.00  0.00     0.193 C 
ATOM     12  N   UNL     1      19.810  12.217   6.405  1.00  0.00    -0.335 N 
ATOM     13  C   UNL     1      20.956  13.020   6.832  1.00  0.00     0.120 C 
ATOM     14  C   UNL     1      18.773  12.927   5.647  1.00  0.00     0.164 C 
ATOM     15  C   UNL     1      21.536  13.860   5.700  1.00  0.00     0.025 C 
ATOM     16  C   UNL     1      20.458  14.697   5.026  1.00  0.00     0.049 C 
BRANCH  12  17
ATOM     17  C   UNL     1      19.627  10.997   7.049  1.00  0.00     0.246 C 
ATOM     18  O   UNL     1      20.497  10.469   7.739  1.00  0.00    -0.270 OA
BRANCH  17  19
ATOM     19  C   UNL     1      18.310  10.322   6.886  1.00  0.00     0.063 C 
ATOM     20  C   UNL     1      18.110   9.107   7.414  1.00  0.00     0.014 C 
ENDBRANCH  17  19
ENDBRANCH  12  17
ENDBRANCH  10  11
ENDBRANCH   1  10
BRANCH   3  21
ATOM     21  C   UNL     1      14.187  11.795   3.590  1.00  0.00    -0.010 A 
ATOM     22  C   UNL     1      13.194  12.200   2.682  1.00  0.00     0.052 A 
ATOM     23  C   UNL     1      14.384  10.419   3.846  1.00  0.00    -0.036 A 
ATOM     24  C   UNL     1      12.419  11.249   2.033  1.00  0.00     0.165 A 
ATOM     25  C   UNL     1      13.587   9.476   3.170  1.00  0.00     0.053 A 
ATOM     26  C   UNL     1      12.612   9.895   2.273  1.00  0.00     0.151 A 
ATOM     27  F   UNL     1      11.473  11.637   1.166  1.00  0.00    -0.203 F 
BRANCH  23  28
ATOM     28  C   UNL     1      15.438   9.905   4.804  1.00  0.00     0.033 C 
ATOM     29  C   UNL     1      15.670   8.409   4.647  1.00  0.00     0.009 C 
ENDBRANCH  23  28
BRANCH  26  30
ATOM     30  O   UNL     1      11.856   8.952   1.639  1.00  0.00    -0.505 OA
ATOM     31  H   UNL     1      11.007   9.374   1.411  1.00  0.00     0.293 HD
ENDBRANCH  26  30
ENDBRANCH   3  21
TORSDOF 7
ENDMDL
MODEL 7
REMARK VINA RESULT:      -6.9      2.875      5.927
REMARK SMILES C=CC(=O)N1CCC[C@H](Oc2cc(-c3cc(F)c(O)cc3CC)cn3cncc23)C1
REMARK SMILES IDX 11 1 12 2 13 3 24 4 25 5 26 6 27 7 28 8 29 9 10 10 9 11 5 12
REMARK SMILES IDX 6 13 30 14 7 15 8 16 3 17 4 18 2 19 1 20 14 21 15 22 21 23
REMARK SMILES IDX 16 24 20 25 18 26 17 27 22 28 23 29 19 30
REMARK H PARENT 19 31
ROOT
ATOM      1  C   UNL     1      17.182  14.623   4.853  1.00  0.00     0.146 A 
ATOM      2  C   UNL     1      16.557  13.607   4.227  1.00  0.00     0.059 A 
ATOM      3  C   UNL     1      15.206  13.182   4.600  1.00  0.00     0.002 A 
ATOM      4  C   UNL     1      14.576  13.862   5.580  1.00  0.00     0.101 A 
ATOM      5  N   UNL     1      15.219  14.936   6.191  1.00  0.00    -0.302 N 
ATOM      6  C   UNL     1      14.778  15.778   7.182  1.00  0.00     0.204 A 
ATOM      7  N   UNL     1      15.671  16.694   7.489  1.00  0.00    -0.244 NA
ATOM      8  C   UNL     1      16.740  16.444   6.666  1.00  0.00     0.143 A 
ATOM      9  C   UNL     1      16.499  15.354   5.861  1.00  0.00     0.107 A 
ENDROOT
BRANCH   1  10
ATOM     10  O   UNL     1      18.429  15.066   4.481  1.00  0.00    -0.486 OA
BRANCH  10  11
ATOM     11  C   UNL     1      19.473  14.140   4.827  1.00  0.00     0.193 C 
ATOM     12  N   UNL     1      20.116  12.609   6.715  1.00  0.00    -0.335 N 
ATOM     13  C   UNL     1      21.413  13.271   6.857  1.00  0.00     0.120 C 
ATOM     14  C   UNL     1      19.046  13.412   6.112  1.00  0.00     0.164 C 
ATOM     15  C   UNL     1      21.859  13.965   5.575  1.00  0.00     0.025 C 
ATOM     16  C   UNL     1      20.780  14.903   5.051  1.00  0.00     0.049 C 
BRANCH  12  17
ATOM     17  C   UNL     1      19.915  11.460   7.474  1.00  0.00     0.246 C 
ATOM     18  O   UNL     1      20.131  11.413   8.684  1.00  0.00    -0.270 OA
BRANCH  17  19
ATOM     19  C   UNL     1      19.408  10.249   6.772  1.00  0.00     0.063 C 
ATOM     20  C   UNL     1      18.102   9.955   6.800  1.00  0.00     0.014 C 
ENDBRANCH  17  19
ENDBRANCH  12  17
ENDBRANCH  10  11
ENDBRANCH   1  10
BRANCH   3  21
ATOM     21  C   UNL     1      14.517  12.049   3.958  1.00  0.00    -0.010 A 
ATOM     22  C   UNL     1      14.924  10.753   4.315  1.00  0.00     0.052 A 
ATOM     23  C   UNL     1      13.493  12.224   2.999  1.00  0.00    -0.036 A 
ATOM     24  C   UNL     1      14.315   9.650   3.733  1.00  0.00     0.165 A 
ATOM     25  C   UNL     1      12.889  11.086   2.428  1.00  0.00     0.053 A 
ATOM     26  C   UNL     1      13.303   9.813   2.796  1.00  0.00     0.151 A 
ATOM     27  F   UNL     1      14.704   8.414   4.075  1.00  0.00    -0.203 F 
BRANCH  23  28
ATOM     28  C   UNL     1      12.995  13.587   2.568  1.00  0.00     0.033 C 
ATOM     29  C   UNL     1      13.787  14.139   1.392  1.00  0.00     0.009 C 
ENDBRANCH  23  28
BRANCH  26  30
ATOM     30  O   UNL     1      12.696   8.735   2.219  1.00  0.00    -0.505 OA
ATOM     31  H   UNL     1      11.760   8.756   2.492  1.00  0.00     0.293 HD
ENDBRANCH  26  30
ENDBRANCH   3  21
TORSDOF 7
ENDMDL
MODEL 8
REMARK VINA RESULT:      -6.9     24.517     27.789
REMARK SMILES C=CC(=O)N1CCC[C@H](Oc2cc(-c3cc(F)c(O)cc3CC)cn3cncc23)C1
REMARK SMILES IDX 11 1 12 2 13 3 24 4 25 5 26 6 27 7 28 8 29 9 10 10 9 11 5 12
REMARK SMILES IDX 6 13 30 14 7 15 8 16 3 17 4 18 2 19 1 20 14 21 15 22 21 23
REMARK SMILES IDX 16 24 20 25 18 26 17 27 22 28 23 29 19 30
REMARK H PARENT 19 31
ROOT
ATOM      1  C   UNL     1      13.798  29.686 -18.368  1.00  0.00     0.146 A 
ATOM      2  C   UNL     1      15.113  29.947 -18.502  1.00  0.00     0.059 A 
ATOM      3  C   UNL     1      15.840  30.776 -17.539  1.00  0.00     0.002 A 
ATOM      4  C   UNL     1      15.161  31.256 -16.477  1.00  0.00     0.101 A 
ATOM      5  N   UNL     1      13.812  30.945 -16.330  1.00  0.00    -0.302 N 
ATOM      6  C   UNL     1      12.931  31.297 -15.336  1.00  0.00     0.204 A 
ATOM      7  N   UNL     1      11.731  30.795 -15.535  1.00  0.00    -0.244 NA
ATOM      8  C   UNL     1      11.829  30.084 -16.705  1.00  0.00     0.143 A 
ATOM      9  C   UNL     1      13.099  30.169 -17.230  1.00  0.00     0.107 A 
ENDROOT
BRANCH   1  10
ATOM     10  O   UNL     1      13.113  28.870 -19.235  1.00  0.00    -0.486 OA
BRANCH  10  11
ATOM     11  C   UNL     1      13.103  27.495 -18.815  1.00  0.00     0.193 C 
ATOM     12  N   UNL     1      14.623  25.492 -18.809  1.00  0.00    -0.335 N 
ATOM     13  C   UNL     1      13.639  24.699 -19.545  1.00  0.00     0.120 C 
ATOM     14  C   UNL     1      14.531  26.947 -18.974  1.00  0.00     0.164 C 
ATOM     15  C   UNL     1      12.216  25.216 -19.363  1.00  0.00     0.025 C 
ATOM     16  C   UNL     1      12.124  26.701 -19.683  1.00  0.00     0.049 C 
BRANCH  12  17
ATOM     17  C   UNL     1      15.746  24.816 -18.339  1.00  0.00     0.246 C 
ATOM     18  O   UNL     1      16.639  24.410 -19.080  1.00  0.00    -0.270 OA
BRANCH  17  19
ATOM     19  C   UNL     1      15.852  24.593 -16.871  1.00  0.00     0.063 C 
ATOM     20  C   UNL     1      14.765  24.694 -16.096  1.00  0.00     0.014 C 
ENDBRANCH  17  19
ENDBRANCH  12  17
ENDBRANCH  10  11
ENDBRANCH   1  10
BRANCH   3  21
ATOM     21  C   UNL     1      17.269  31.108 -17.685  1.00  0.00    -0.010 A 
ATOM     22  C   UNL     1      18.197  30.294 -17.016  1.00  0.00     0.052 A 
ATOM     23  C   UNL     1      17.721  32.209 -18.448  1.00  0.00    -0.036 A 
ATOM     24  C   UNL     1      19.555  30.569 -17.113  1.00  0.00     0.165 A 
ATOM     25  C   UNL     1      19.104  32.460 -18.533  1.00  0.00     0.053 A 
ATOM     26  C   UNL     1      20.008  31.643 -17.866  1.00  0.00     0.151 A 
ATOM     27  F   UNL     1      20.441  29.791 -16.474  1.00  0.00    -0.203 F 
BRANCH  23  28
ATOM     28  C   UNL     1      16.782  33.126 -19.204  1.00  0.00     0.033 C 
ATOM     29  C   UNL     1      16.989  34.586 -18.830  1.00  0.00     0.009 C 
ENDBRANCH  23  28
BRANCH  26  30
ATOM     30  O   UNL     1      21.340  31.920 -17.969  1.00  0.00    -0.505 OA
ATOM     31  H   UNL     1      21.417  32.801 -18.382  1.00  0.00     0.293 HD
ENDBRANCH  26  30
ENDBRANCH   3  21
TORSDOF 7
ENDMDL
MODEL 9
REMARK VINA RESULT:      -6.9     26.363     28.338
REMARK SMILES C=CC(=O)N1CCC[C@H](Oc2cc(-c3cc(F)c(O)cc3CC)cn3cncc23)C1
REMARK SMILES IDX 11 1 12 2 13 3 24 4 25 5 26 6 27 7 28 8 29 9 10 10 9 11 5 12
REMARK SMILES IDX 6 13 30 14 7 15 8 16 3 17 4 18 2 19 1 20 14 21 15 22 21 23
REMARK SMILES IDX 16 24 20 25 18 26 17 27 22 28 23 29 19 30
REMARK H PARENT 19 31
ROOT
ATOM      1  C   UNL     1      16.990  36.800 -14.297  1.00  0.00     0.146 A 
ATOM      2  C   UNL     1      17.429  35.553 -14.555  1.00  0.00     0.059 A 
ATOM      3  C   UNL     1      17.301  34.946 -15.882  1.00  0.00     0.002 A 
ATOM      4  C   UNL     1      16.753  35.687 -16.867  1.00  0.00     0.101 A 
ATOM      5  N   UNL     1      16.340  36.988 -16.595  1.00  0.00    -0.302 N 
ATOM      6  C   UNL     1      15.781  37.926 -17.429  1.00  0.00     0.204 A 
ATOM      7  N   UNL     1      15.538  39.061 -16.808  1.00  0.00    -0.244 NA
ATOM      8  C   UNL     1      15.957  38.860 -15.516  1.00  0.00     0.143 A 
ATOM      9  C   UNL     1      16.444  37.583 -15.348  1.00  0.00     0.107 A 
ENDROOT
BRANCH   1  10
ATOM     10  O   UNL     1      17.148  37.401 -13.072  1.00  0.00    -0.486 OA
BRANCH  10  11
ATOM     11  C   UNL     1      16.220  36.911 -12.088  1.00  0.00     0.193 C 
ATOM     12  N   UNL     1      14.160  37.672 -10.864  1.00  0.00    -0.335 N 
ATOM     13  C   UNL     1      14.801  37.443  -9.570  1.00  0.00     0.120 C 
ATOM     14  C   UNL     1      15.062  37.918 -11.995  1.00  0.00     0.164 C 
ATOM     15  C   UNL     1      15.928  36.419  -9.648  1.00  0.00     0.025 C 
ATOM     16  C   UNL     1      16.928  36.780 -10.737  1.00  0.00     0.049 C 
BRANCH  12  17
ATOM     17  C   UNL     1      12.807  38.000 -10.842  1.00  0.00     0.246 C 
ATOM     18  O   UNL     1      12.268  38.671 -11.720  1.00  0.00    -0.270 OA
BRANCH  17  19
ATOM     19  C   UNL     1      11.995  37.498  -9.700  1.00  0.00     0.063 C 
ATOM     20  C   UNL     1      11.182  38.332  -9.038  1.00  0.00     0.014 C 
ENDBRANCH  17  19
ENDBRANCH  12  17
ENDBRANCH  10  11
ENDBRANCH   1  10
BRANCH   3  21
ATOM     21  C   UNL     1      17.738  33.570 -16.178  1.00  0.00    -0.010 A 
ATOM     22  C   UNL     1      18.926  33.408 -16.910  1.00  0.00     0.052 A 
ATOM     23  C   UNL     1      17.001  32.433 -15.775  1.00  0.00    -0.036 A 
ATOM     24  C   UNL     1      19.377  32.133 -17.224  1.00  0.00     0.165 A 
ATOM     25  C   UNL     1      17.485  31.152 -16.103  1.00  0.00     0.053 A 
ATOM     26  C   UNL     1      18.664  31.011 -16.824  1.00  0.00     0.151 A 
ATOM     27  F   UNL     1      20.512  31.979 -17.921  1.00  0.00    -0.203 F 
BRANCH  23  28
ATOM     28  C   UNL     1      15.716  32.527 -14.978  1.00  0.00     0.033 C 
ATOM     29  C   UNL     1      14.487  32.343 -15.856  1.00  0.00     0.009 C 
ENDBRANCH  23  28
BRANCH  26  30
ATOM     30  O   UNL     1      19.100  29.754 -17.127  1.00  0.00    -0.505 OA
ATOM     31  H   UNL     1      19.866  29.854 -17.723  1.00  0.00     0.293 HD
ENDBRANCH  26  30
ENDBRANCH   3  21
TORSDOF 7
ENDMDL
