MODEL 1
REMARK VINA RESULT:      -8.8      0.000      0.000
REMARK SMILES C=CC(=O)N1CC[C@H](Oc2cc(-c3ccc(O)cc3)cn3cncc23)C(F)(F)C1
REMARK SMILES IDX 10 1 11 2 12 3 20 4 21 5 22 6 23 7 24 8 25 9 9 10 8 11 5 12
REMARK SMILES IDX 6 13 29 14 7 15 26 16 27 17 28 18 3 19 4 20 2 21 1 22 13 23
REMARK SMILES IDX 14 24 19 25 15 26 18 27 16 28 17 29
REMARK H PARENT 17 30
ROOT
ATOM      1  C   UNL     1      14.087  12.335   2.930  1.00  0.00     0.146 A 
ATOM      2  C   UNL     1      13.412  13.451   2.591  1.00  0.00     0.059 A 
ATOM      3  C   UNL     1      12.140  13.398   1.862  1.00  0.00     0.002 A 
ATOM      4  C   UNL     1      11.638  12.181   1.563  1.00  0.00     0.101 A 
ATOM      5  N   UNL     1      12.328  11.037   1.952  1.00  0.00    -0.302 N 
ATOM      6  C   UNL     1      12.012   9.714   1.770  1.00  0.00     0.204 A 
ATOM      7  N   UNL     1      12.912   8.910   2.296  1.00  0.00    -0.244 NA
ATOM      8  C   UNL     1      13.852   9.741   2.855  1.00  0.00     0.143 A 
ATOM      9  C   UNL     1      13.533  11.062   2.635  1.00  0.00     0.107 A 
ENDROOT
BRANCH   1  10
ATOM     10  O   UNL     1      15.262  12.365   3.641  1.00  0.00    -0.482 OA
BRANCH  10  11
ATOM     11  C   UNL     1      15.348  13.509   4.517  1.00  0.00     0.246 C 
ATOM     12  N   UNL     1      16.275  15.298   6.470  1.00  0.00    -0.333 N 
ATOM     13  C   UNL     1      16.297  13.896   6.872  1.00  0.00     0.124 C 
ATOM     14  C   UNL     1      16.664  15.571   5.074  1.00  0.00     0.200 C 
ATOM     15  C   UNL     1      15.422  13.025   5.973  1.00  0.00     0.073 C 
ATOM     16  C   UNL     1      16.569  14.354   4.151  1.00  0.00     0.301 C 
ATOM     17  F   UNL     1      16.493  14.776   2.863  1.00  0.00    -0.201 F 
ATOM     18  F   UNL     1      17.705  13.616   4.255  1.00  0.00    -0.201 F 
BRANCH  12  19
ATOM     19  C   UNL     1      16.347  16.256   7.473  1.00  0.00     0.246 C 
ATOM     20  O   UNL     1      17.214  16.276   8.342  1.00  0.00    -0.270 OA
BRANCH  19  21
ATOM     21  C   UNL     1      15.330  17.334   7.467  1.00  0.00     0.063 C 
ATOM     22  C   UNL     1      14.019  17.060   7.466  1.00  0.00     0.014 C 
ENDBRANCH  19  21
ENDBRANCH  12  19
ENDBRANCH  10  11
ENDBRANCH   1  10
BRANCH   3  23
ATOM     23  C   UNL     1      11.406  14.601   1.440  1.00  0.00    -0.017 A 
ATOM     24  C   UNL     1      11.036  15.566   2.388  1.00  0.00     0.012 A 
ATOM     25  C   UNL     1      11.059  14.792   0.095  1.00  0.00     0.012 A 
ATOM     26  C   UNL     1      10.335  16.710   1.997  1.00  0.00     0.047 A 
ATOM     27  C   UNL     1      10.359  15.935  -0.294  1.00  0.00     0.047 A 
ATOM     28  C   UNL     1      10.004  16.885   0.657  1.00  0.00     0.115 A 
BRANCH  28  29
ATOM     29  O   UNL     1       9.322  17.985   0.231  1.00  0.00    -0.508 OA
ATOM     30  H   UNL     1       8.414  17.722   0.007  1.00  0.00     0.293 HD
ENDBRANCH  28  29
ENDBRANCH   3  23
TORSDOF 6
ENDMDL
MODEL 2
REMARK VINA RESULT:      -8.5      2.050      2.463
REMARK SMILES C=CC(=O)N1CC[C@H](Oc2cc(-c3ccc(O)cc3)cn3cncc23)C(F)(F)C1
REMARK SMILES IDX 10 1 11 2 12 3 20 4 21 5 22 6 23 7 24 8 25 9 9 10 8 11 5 12
REMARK SMILES IDX 6 13 29 14 7 15 26 16 27 17 28 18 3 19 4 20 2 21 1 22 13 23
REMARK SMILES IDX 14 24 19 25 15 26 18 27 16 28 17 29
REMARK H PARENT 17 30
ROOT
ATOM      1  C   UNL     1      13.666  12.124   3.768  1.00  0.00     0.146 A 
ATOM      2  C   UNL     1      13.040  13.242   3.351  1.00  0.00     0.059 A 
ATOM      3  C   UNL     1      12.095  13.230   2.229  1.00  0.00     0.002 A 
ATOM      4  C   UNL     1      11.838  12.044   1.637  1.00  0.00     0.101 A 
ATOM      5  N   UNL     1      12.464  10.892   2.105  1.00  0.00    -0.302 N 
ATOM      6  C   UNL     1      12.352   9.594   1.673  1.00  0.00     0.204 A 
ATOM      7  N   UNL     1      13.096   8.769   2.380  1.00  0.00    -0.244 NA
ATOM      8  C   UNL     1      13.715   9.558   3.319  1.00  0.00     0.143 A 
ATOM      9  C   UNL     1      13.365  10.880   3.157  1.00  0.00     0.107 A 
ENDROOT
BRANCH   1  10
ATOM     10  O   UNL     1      14.529  12.112   4.838  1.00  0.00    -0.482 OA
BRANCH  10  11
ATOM     11  C   UNL     1      15.773  12.786   4.550  1.00  0.00     0.246 C 
ATOM     12  N   UNL     1      18.363  13.826   4.845  1.00  0.00    -0.333 N 
ATOM     13  C   UNL     1      17.469  14.097   5.966  1.00  0.00     0.124 C 
ATOM     14  C   UNL     1      18.245  12.485   4.241  1.00  0.00     0.200 C 
ATOM     15  C   UNL     1      16.002  13.889   5.596  1.00  0.00     0.073 C 
ATOM     16  C   UNL     1      16.922  11.778   4.549  1.00  0.00     0.301 C 
ATOM     17  F   UNL     1      16.710  10.809   3.622  1.00  0.00    -0.201 F 
ATOM     18  F   UNL     1      17.010  11.155   5.753  1.00  0.00    -0.201 F 
BRANCH  12  19
ATOM     19  C   UNL     1      19.507  14.604   4.732  1.00  0.00     0.246 C 
ATOM     20  O   UNL     1      20.624  14.152   4.497  1.00  0.00    -0.270 OA
BRANCH  19  21
ATOM     21  C   UNL     1      19.355  16.072   4.871  1.00  0.00     0.063 C 
ATOM     22  C   UNL     1      19.868  16.734   5.916  1.00  0.00     0.014 C 
ENDBRANCH  19  21
ENDBRANCH  12  19
ENDBRANCH  10  11
ENDBRANCH   1  10
BRANCH   3  23
ATOM     23  C   UNL     1      11.434  14.443   1.724  1.00  0.00    -0.017 A 
ATOM     24  C   UNL     1      11.059  15.461   2.612  1.00  0.00     0.012 A 
ATOM     25  C   UNL     1      11.160  14.591   0.357  1.00  0.00     0.012 A 
ATOM     26  C   UNL     1      10.427  16.614   2.142  1.00  0.00     0.047 A 
ATOM     27  C   UNL     1      10.529  15.744  -0.113  1.00  0.00     0.047 A 
ATOM     28  C   UNL     1      10.168  16.746   0.781  1.00  0.00     0.115 A 
BRANCH  28  29
ATOM     29  O   UNL     1       9.555  17.854   0.278  1.00  0.00    -0.508 OA
ATOM     30  H   UNL     1       8.845  18.121   0.885  1.00  0.00     0.293 HD
ENDBRANCH  28  29
ENDBRANCH   3  23
TORSDOF 6
ENDMDL
MODEL 3
REMARK VINA RESULT:      -7.9      3.156      4.509
REMARK SMILES C=CC(=O)N1CC[C@H](Oc2cc(-c3ccc(O)cc3)cn3cncc23)C(F)(F)C1
REMARK SMILES IDX 10 1 11 2 12 3 20 4 21 5 22 6 23 7 24 8 25 9 9 10 8 11 5 12
REMARK SMILES IDX 6 13 29 14 7 15 26 16 27 17 28 18 3 19 4 20 2 21 1 22 13 23
REMARK SMILES IDX 14 24 19 25 15 26 18 27 16 28 17 29
REMARK H PARENT 17 30
ROOT
ATOM      1  C   UNL     1      17.209  10.581   4.906  1.00  0.00     0.146 A 
ATOM      2  C   UNL     1      16.087  10.921   4.242  1.00  0.00     0.059 A 
ATOM      3  C   UNL     1      15.071   9.929   3.874  1.00  0.00     0.002 A 
ATOM      4  C   UNL     1      15.276   8.649   4.255  1.00  0.00     0.101 A 
ATOM      5  N   UNL     1      16.423   8.321   4.973  1.00  0.00    -0.302 N 
ATOM      6  C   UNL     1      16.834   7.107   5.467  1.00  0.00     0.204 A 
ATOM      7  N   UNL     1      17.978   7.195   6.112  1.00  0.00    -0.244 NA
ATOM      8  C   UNL     1      18.326   8.522   6.046  1.00  0.00     0.143 A 
ATOM      9  C   UNL     1      17.399   9.238   5.325  1.00  0.00     0.107 A 
ENDROOT
BRANCH   1  10
ATOM     10  O   UNL     1      18.155  11.503   5.286  1.00  0.00    -0.482 OA
BRANCH  10  11
ATOM     11  C   UNL     1      17.605  12.829   5.432  1.00  0.00     0.246 C 
ATOM     12  N   UNL     1      17.391  15.572   5.985  1.00  0.00    -0.333 N 
ATOM     13  C   UNL     1      18.065  14.796   7.019  1.00  0.00     0.124 C 
ATOM     14  C   UNL     1      17.700  15.192   4.594  1.00  0.00     0.200 C 
ATOM     15  C   UNL     1      17.797  13.298   6.882  1.00  0.00     0.073 C 
ATOM     16  C   UNL     1      18.281  13.783   4.447  1.00  0.00     0.301 C 
ATOM     17  F   UNL     1      18.105  13.360   3.169  1.00  0.00    -0.201 F 
ATOM     18  F   UNL     1      19.622  13.821   4.666  1.00  0.00    -0.201 F 
BRANCH  12  19
ATOM     19  C   UNL     1      16.911  16.828   6.334  1.00  0.00     0.246 C 
ATOM     20  O   UNL     1      17.265  17.872   5.794  1.00  0.00    -0.270 OA
BRANCH  19  21
ATOM     21  C   UNL     1      15.885  16.898   7.400  1.00  0.00     0.063 C 
ATOM     22  C   UNL     1      14.698  16.290   7.272  1.00  0.00     0.014 C 
ENDBRANCH  19  21
ENDBRANCH  12  19
ENDBRANCH  10  11
ENDBRANCH   1  10
BRANCH   3  23
ATOM     23  C   UNL     1      13.861  10.264   3.110  1.00  0.00    -0.017 A 
ATOM     24  C   UNL     1      13.318   9.336   2.210  1.00  0.00     0.012 A 
ATOM     25  C   UNL     1      13.243  11.514   3.260  1.00  0.00     0.012 A 
ATOM     26  C   UNL     1      12.171   9.647   1.476  1.00  0.00     0.047 A 
ATOM     27  C   UNL     1      12.096  11.824   2.527  1.00  0.00     0.047 A 
ATOM     28  C   UNL     1      11.569  10.890   1.642  1.00  0.00     0.115 A 
BRANCH  28  29
ATOM     29  O   UNL     1      10.448  11.236   0.949  1.00  0.00    -0.508 OA
ATOM     30  H   UNL     1      10.368  10.654   0.175  1.00  0.00     0.293 HD
ENDBRANCH  28  29
ENDBRANCH   3  23
TORSDOF 6
ENDMDL
MODEL 4
REMARK VINA RESULT:      -7.6      3.405      8.097
REMARK SMILES C=CC(=O)N1CC[C@H](Oc2cc(-c3ccc(O)cc3)cn3cncc23)C(F)(F)C1
REMARK SMILES IDX 10 1 11 2 12 3 20 4 21 5 22 6 23 7 24 8 25 9 9 10 8 11 5 12
REMARK SMILES IDX 6 13 29 14 7 15 26 16 27 17 28 18 3 19 4 20 2 21 1 22 13 23
REMARK SMILES IDX 14 24 19 25 15 26 18 27 16 28 17 29
REMARK H PARENT 17 30
ROOT
ATOM      1  C   UNL     1      17.422  13.809   4.788  1.00  0.00     0.146 A 
ATOM      2  C   UNL     1      17.080  12.516   4.945  1.00  0.00     0.059 A 
ATOM      3  C   UNL     1      18.082  11.470   5.175  1.00  0.00     0.002 A 
ATOM      4  C   UNL     1      19.376  11.847   5.261  1.00  0.00     0.101 A 
ATOM      5  N   UNL     1      19.710  13.193   5.134  1.00  0.00    -0.302 N 
ATOM      6  C   UNL     1      20.937  13.804   5.194  1.00  0.00     0.204 A 
ATOM      7  N   UNL     1      20.851  15.109   5.042  1.00  0.00    -0.244 NA
ATOM      8  C   UNL     1      19.510  15.364   4.884  1.00  0.00     0.143 A 
ATOM      9  C   UNL     1      18.782  14.197   4.909  1.00  0.00     0.107 A 
ENDROOT
BRANCH   1  10
ATOM     10  O   UNL     1      16.493  14.805   4.604  1.00  0.00    -0.482 OA
BRANCH  10  11
ATOM     11  C   UNL     1      15.438  14.415   3.699  1.00  0.00     0.246 C 
ATOM     12  N   UNL     1      13.299  14.563   1.889  1.00  0.00    -0.333 N 
ATOM     13  C   UNL     1      13.162  15.421   3.061  1.00  0.00     0.124 C 
ATOM     14  C   UNL     1      14.655  14.471   1.316  1.00  0.00     0.200 C 
ATOM     15  C   UNL     1      14.109  15.013   4.187  1.00  0.00     0.073 C 
ATOM     16  C   UNL     1      15.769  14.884   2.282  1.00  0.00     0.301 C 
ATOM     17  F   UNL     1      16.944  14.350   1.861  1.00  0.00    -0.201 F 
ATOM     18  F   UNL     1      15.918  16.234   2.250  1.00  0.00    -0.201 F 
BRANCH  12  19
ATOM     19  C   UNL     1      12.151  14.288   1.157  1.00  0.00     0.246 C 
ATOM     20  O   UNL     1      11.733  14.996   0.245  1.00  0.00    -0.270 OA
BRANCH  19  21
ATOM     21  C   UNL     1      11.414  13.044   1.480  1.00  0.00     0.063 C 
ATOM     22  C   UNL     1      11.993  12.039   2.149  1.00  0.00     0.014 C 
ENDBRANCH  19  21
ENDBRANCH  12  19
ENDBRANCH  10  11
ENDBRANCH   1  10
BRANCH   3  23
ATOM     23  C   UNL     1      17.741  10.045   5.303  1.00  0.00    -0.017 A 
ATOM     24  C   UNL     1      18.734   9.112   5.635  1.00  0.00     0.012 A 
ATOM     25  C   UNL     1      16.429   9.601   5.086  1.00  0.00     0.012 A 
ATOM     26  C   UNL     1      18.421   7.756   5.755  1.00  0.00     0.047 A 
ATOM     27  C   UNL     1      16.116   8.246   5.207  1.00  0.00     0.047 A 
ATOM     28  C   UNL     1      17.112   7.335   5.541  1.00  0.00     0.115 A 
BRANCH  28  29
ATOM     29  O   UNL     1      16.761   6.023   5.648  1.00  0.00    -0.508 OA
ATOM     30  H   UNL     1      17.562   5.496   5.804  1.00  0.00     0.293 HD
ENDBRANCH  28  29
ENDBRANCH   3  23
TORSDOF 6
ENDMDL
MODEL 5
REMARK VINA RESULT:      -7.5      2.934      4.235
REMARK SMILES C=CC(=O)N1CC[C@H](Oc2cc(-c3ccc(O)cc3)cn3cncc23)C(F)(F)C1
REMARK SMILES IDX 10 1 11 2 12 3 20 4 21 5 22 6 23 7 24 8 25 9 9 10 8 11 5 12
REMARK SMILES IDX 6 13 29 14 7 15 26 16 27 17 28 18 3 19 4 20 2 21 1 22 13 23
REMARK SMILES IDX 14 24 19 25 15 26 18 27 16 28 17 29
REMARK H PARENT 17 30
ROOT
ATOM      1  C   UNL     1      16.998  11.750   4.875  1.00  0.00     0.146 A 
ATOM      2  C   UNL     1      15.843  11.875   4.192  1.00  0.00     0.059 A 
ATOM      3  C   UNL     1      15.020  10.713   3.841  1.00  0.00     0.002 A 
ATOM      4  C   UNL     1      15.438   9.498   4.256  1.00  0.00     0.101 A 
ATOM      5  N   UNL     1      16.615   9.390   4.993  1.00  0.00    -0.302 N 
ATOM      6  C   UNL     1      17.223   8.279   5.521  1.00  0.00     0.204 A 
ATOM      7  N   UNL     1      18.326   8.579   6.174  1.00  0.00    -0.244 NA
ATOM      8  C   UNL     1      18.440   9.944   6.078  1.00  0.00     0.143 A 
ATOM      9  C   UNL     1      17.412  10.471   5.330  1.00  0.00     0.107 A 
ENDROOT
BRANCH   1  10
ATOM     10  O   UNL     1      17.765  12.831   5.240  1.00  0.00    -0.482 OA
BRANCH  10  11
ATOM     11  C   UNL     1      16.965  13.969   5.627  1.00  0.00     0.246 C 
ATOM     12  N   UNL     1      16.237  16.497   6.603  1.00  0.00    -0.333 N 
ATOM     13  C   UNL     1      17.169  15.764   7.453  1.00  0.00     0.124 C 
ATOM     14  C   UNL     1      16.466  16.381   5.151  1.00  0.00     0.200 C 
ATOM     15  C   UNL     1      17.210  14.276   7.112  1.00  0.00     0.073 C 
ATOM     16  C   UNL     1      17.313  15.171   4.748  1.00  0.00     0.301 C 
ATOM     17  F   UNL     1      17.092  14.889   3.438  1.00  0.00    -0.201 F 
ATOM     18  F   UNL     1      18.631  15.480   4.865  1.00  0.00    -0.201 F 
BRANCH  12  19
ATOM     19  C   UNL     1      15.542  17.556   7.174  1.00  0.00     0.246 C 
ATOM     20  O   UNL     1      15.991  18.694   7.278  1.00  0.00    -0.270 OA
BRANCH  19  21
ATOM     21  C   UNL     1      14.165  17.294   7.653  1.00  0.00     0.063 C 
ATOM     22  C   UNL     1      13.116  17.977   7.177  1.00  0.00     0.014 C 
ENDBRANCH  19  21
ENDBRANCH  12  19
ENDBRANCH  10  11
ENDBRANCH   1  10
BRANCH   3  23
ATOM     23  C   UNL     1      13.780  10.815   3.057  1.00  0.00    -0.017 A 
ATOM     24  C   UNL     1      13.046  12.010   3.056  1.00  0.00     0.012 A 
ATOM     25  C   UNL     1      13.310   9.722   2.315  1.00  0.00     0.012 A 
ATOM     26  C   UNL     1      11.865  12.116   2.318  1.00  0.00     0.047 A 
ATOM     27  C   UNL     1      12.130   9.828   1.577  1.00  0.00     0.047 A 
ATOM     28  C   UNL     1      11.417  11.022   1.583  1.00  0.00     0.115 A 
BRANCH  28  29
ATOM     29  O   UNL     1      10.272  11.080   0.847  1.00  0.00    -0.508 OA
ATOM     30  H   UNL     1       9.540  11.344   1.430  1.00  0.00     0.293 HD
ENDBRANCH  28  29
ENDBRANCH   3  23
TORSDOF 6
ENDMDL
MODEL 6
REMARK VINA RESULT:      -7.4      1.776      2.394
REMARK SMILES C=CC(=O)N1CC[C@H](Oc2cc(-c3ccc(O)cc3)cn3cncc23)C(F)(F)C1
REMARK SMILES IDX 10 1 11 2 12 3 20 4 21 5 22 6 23 7 24 8 25 9 9 10 8 11 5 12
REMARK SMILES IDX 6 13 29 14 7 15 26 16 27 17 28 18 3 19 4 20 2 21 1 22 13 23
REMARK SMILES IDX 14 24 19 25 15 26 18 27 16 28 17 29
REMARK H PARENT 17 30
ROOT
ATOM      1  C   UNL     1      15.391  11.983   4.237  1.00  0.00     0.146 A 
ATOM      2  C   UNL     1      14.576  12.934   3.741  1.00  0.00     0.059 A 
ATOM      3  C   UNL     1      13.456  12.610   2.851  1.00  0.00     0.002 A 
ATOM      4  C   UNL     1      13.238  11.308   2.564  1.00  0.00     0.101 A 
ATOM      5  N   UNL     1      14.067  10.335   3.115  1.00  0.00    -0.302 N 
ATOM      6  C   UNL     1      14.034   8.970   2.975  1.00  0.00     0.204 A 
ATOM      7  N   UNL     1      14.982   8.375   3.668  1.00  0.00    -0.244 NA
ATOM      8  C   UNL     1      15.659   9.392   4.295  1.00  0.00     0.143 A 
ATOM      9  C   UNL     1      15.134  10.617   3.951  1.00  0.00     0.107 A 
ENDROOT
BRANCH   1  10
ATOM     10  O   UNL     1      16.425  12.267   5.097  1.00  0.00    -0.482 OA
BRANCH  10  11
ATOM     11  C   UNL     1      16.664  13.685   5.224  1.00  0.00     0.246 C 
ATOM     12  N   UNL     1      17.753  16.133   6.059  1.00  0.00    -0.333 N 
ATOM     13  C   UNL     1      17.441  15.207   7.142  1.00  0.00     0.124 C 
ATOM     14  C   UNL     1      18.324  15.527   4.841  1.00  0.00     0.200 C 
ATOM     15  C   UNL     1      16.493  14.096   6.695  1.00  0.00     0.073 C 
ATOM     16  C   UNL     1      18.065  14.023   4.713  1.00  0.00     0.301 C 
ATOM     17  F   UNL     1      18.204  13.657   3.414  1.00  0.00    -0.201 F 
ATOM     18  F   UNL     1      19.005  13.339   5.416  1.00  0.00    -0.201 F 
BRANCH  12  19
ATOM     19  C   UNL     1      17.928  17.471   6.386  1.00  0.00     0.246 C 
ATOM     20  O   UNL     1      17.667  17.947   7.488  1.00  0.00    -0.270 OA
BRANCH  19  21
ATOM     21  C   UNL     1      18.494  18.363   5.348  1.00  0.00     0.063 C 
ATOM     22  C   UNL     1      18.253  19.681   5.349  1.00  0.00     0.014 C 
ENDBRANCH  19  21
ENDBRANCH  12  19
ENDBRANCH  10  11
ENDBRANCH   1  10
BRANCH   3  23
ATOM     23  C   UNL     1      12.579  13.631   2.259  1.00  0.00    -0.017 A 
ATOM     24  C   UNL     1      12.162  13.511   0.925  1.00  0.00     0.012 A 
ATOM     25  C   UNL     1      12.160  14.738   3.011  1.00  0.00     0.012 A 
ATOM     26  C   UNL     1      11.333  14.479   0.353  1.00  0.00     0.047 A 
ATOM     27  C   UNL     1      11.330  15.704   2.439  1.00  0.00     0.047 A 
ATOM     28  C   UNL     1      10.922  15.567   1.116  1.00  0.00     0.115 A 
BRANCH  28  29
ATOM     29  O   UNL     1      10.113  16.534   0.600  1.00  0.00    -0.508 OA
ATOM     30  H   UNL     1       9.194  16.337   0.849  1.00  0.00     0.293 HD
ENDBRANCH  28  29
ENDBRANCH   3  23
TORSDOF 6
ENDMDL
MODEL 7
REMARK VINA RESULT:      -7.3      3.055      4.818
REMARK SMILES C=CC(=O)N1CC[C@H](Oc2cc(-c3ccc(O)cc3)cn3cncc23)C(F)(F)C1
REMARK SMILES IDX 10 1 11 2 12 3 20 4 21 5 22 6 23 7 24 8 25 9 9 10 8 11 5 12
REMARK SMILES IDX 6 13 29 14 7 15 26 16 27 17 28 18 3 19 4 20 2 21 1 22 13 23
REMARK SMILES IDX 14 24 19 25 15 26 18 27 16 28 17 29
REMARK H PARENT 17 30
ROOT
ATOM      1  C   UNL     1      15.700  13.580   5.943  1.00  0.00     0.146 A 
ATOM      2  C   UNL     1      14.600  13.270   5.229  1.00  0.00     0.059 A 
ATOM      3  C   UNL     1      14.652  12.359   4.080  1.00  0.00     0.002 A 
ATOM      4  C   UNL     1      15.843  11.803   3.773  1.00  0.00     0.101 A 
ATOM      5  N   UNL     1      16.962  12.104   4.544  1.00  0.00    -0.302 N 
ATOM      6  C   UNL     1      18.256  11.658   4.428  1.00  0.00     0.204 A 
ATOM      7  N   UNL     1      19.039  12.158   5.361  1.00  0.00    -0.244 NA
ATOM      8  C   UNL     1      18.223  12.958   6.124  1.00  0.00     0.143 A 
ATOM      9  C   UNL     1      16.940  12.966   5.628  1.00  0.00     0.107 A 
ENDROOT
BRANCH   1  10
ATOM     10  O   UNL     1      15.663  14.406   7.041  1.00  0.00    -0.482 OA
BRANCH  10  11
ATOM     11  C   UNL     1      15.366  15.775   6.691  1.00  0.00     0.246 C 
ATOM     12  N   UNL     1      14.841  18.522   6.919  1.00  0.00    -0.333 N 
ATOM     13  C   UNL     1      14.089  17.682   7.844  1.00  0.00     0.124 C 
ATOM     14  C   UNL     1      16.243  18.126   6.687  1.00  0.00     0.200 C 
ATOM     15  C   UNL     1      14.087  16.215   7.419  1.00  0.00     0.073 C 
ATOM     16  C   UNL     1      16.549  16.673   7.058  1.00  0.00     0.301 C 
ATOM     17  F   UNL     1      17.674  16.275   6.410  1.00  0.00    -0.201 F 
ATOM     18  F   UNL     1      16.814  16.590   8.388  1.00  0.00    -0.201 F 
BRANCH  12  19
ATOM     19  C   UNL     1      14.377  19.813   6.700  1.00  0.00     0.246 C 
ATOM     20  O   UNL     1      15.098  20.807   6.680  1.00  0.00    -0.270 OA
BRANCH  19  21
ATOM     21  C   UNL     1      12.929  19.987   6.442  1.00  0.00     0.063 C 
ATOM     22  C   UNL     1      12.370  21.202   6.372  1.00  0.00     0.014 C 
ENDBRANCH  19  21
ENDBRANCH  12  19
ENDBRANCH  10  11
ENDBRANCH   1  10
BRANCH   3  23
ATOM     23  C   UNL     1      13.477  12.040   3.255  1.00  0.00    -0.017 A 
ATOM     24  C   UNL     1      13.319  10.751   2.727  1.00  0.00     0.012 A 
ATOM     25  C   UNL     1      12.511  13.017   2.978  1.00  0.00     0.012 A 
ATOM     26  C   UNL     1      12.208  10.439   1.939  1.00  0.00     0.047 A 
ATOM     27  C   UNL     1      11.401  12.705   2.191  1.00  0.00     0.047 A 
ATOM     28  C   UNL     1      11.257  11.421   1.678  1.00  0.00     0.115 A 
BRANCH  28  29
ATOM     29  O   UNL     1      10.158  11.162   0.916  1.00  0.00    -0.508 OA
ATOM     30  H   UNL     1       9.881  11.983   0.478  1.00  0.00     0.293 HD
ENDBRANCH  28  29
ENDBRANCH   3  23
TORSDOF 6
ENDMDL
MODEL 8
REMARK VINA RESULT:      -7.3      2.739      6.972
REMARK SMILES C=CC(=O)N1CC[C@H](Oc2cc(-c3ccc(O)cc3)cn3cncc23)C(F)(F)C1
REMARK SMILES IDX 10 1 11 2 12 3 20 4 21 5 22 6 23 7 24 8 25 9 9 10 8 11 5 12
REMARK SMILES IDX 6 13 29 14 7 15 26 16 27 17 28 18 3 19 4 20 2 21 1 22 13 23
REMARK SMILES IDX 14 24 19 25 15 26 18 27 16 28 17 29
REMARK H PARENT 17 30
ROOT
ATOM      1  C   UNL     1      15.818  15.261   5.618  1.00  0.00     0.146 A 
ATOM      2  C   UNL     1      14.893  16.238   5.691  1.00  0.00     0.059 A 
ATOM      3  C   UNL     1      14.901  17.235   6.767  1.00  0.00     0.002 A 
ATOM      4  C   UNL     1      15.895  17.169   7.678  1.00  0.00     0.101 A 
ATOM      5  N   UNL     1      16.865  16.176   7.567  1.00  0.00    -0.302 N 
ATOM      6  C   UNL     1      17.957  15.921   8.358  1.00  0.00     0.204 A 
ATOM      7  N   UNL     1      18.657  14.895   7.923  1.00  0.00    -0.244 NA
ATOM      8  C   UNL     1      18.001  14.464   6.795  1.00  0.00     0.143 A 
ATOM      9  C   UNL     1      16.874  15.219   6.565  1.00  0.00     0.107 A 
ENDROOT
BRANCH   1  10
ATOM     10  O   UNL     1      15.844  14.339   4.599  1.00  0.00    -0.482 OA
BRANCH  10  11
ATOM     11  C   UNL     1      14.608  14.305   3.854  1.00  0.00     0.246 C 
ATOM     12  N   UNL     1      12.725  13.731   1.854  1.00  0.00    -0.333 N 
ATOM     13  C   UNL     1      14.026  14.164   1.356  1.00  0.00     0.124 C 
ATOM     14  C   UNL     1      12.753  12.834   3.024  1.00  0.00     0.200 C 
ATOM     15  C   UNL     1      14.859  14.848   2.438  1.00  0.00     0.073 C 
ATOM     16  C   UNL     1      14.066  12.876   3.811  1.00  0.00     0.301 C 
ATOM     17  F   UNL     1      13.848  12.407   5.066  1.00  0.00    -0.201 F 
ATOM     18  F   UNL     1      14.969  12.042   3.232  1.00  0.00    -0.201 F 
BRANCH  12  19
ATOM     19  C   UNL     1      11.648  13.795   0.980  1.00  0.00     0.246 C 
ATOM     20  O   UNL     1      11.174  12.821   0.403  1.00  0.00    -0.270 OA
BRANCH  19  21
ATOM     21  C   UNL     1      11.018  15.119   0.763  1.00  0.00     0.063 C 
ATOM     22  C   UNL     1      10.797  15.964   1.779  1.00  0.00     0.014 C 
ENDBRANCH  19  21
ENDBRANCH  12  19
ENDBRANCH  10  11
ENDBRANCH   1  10
BRANCH   3  23
ATOM     23  C   UNL     1      13.878  18.284   6.897  1.00  0.00    -0.017 A 
ATOM     24  C   UNL     1      14.187  19.611   6.566  1.00  0.00     0.012 A 
ATOM     25  C   UNL     1      12.592  17.975   7.362  1.00  0.00     0.012 A 
ATOM     26  C   UNL     1      13.223  20.615   6.690  1.00  0.00     0.047 A 
ATOM     27  C   UNL     1      11.629  18.978   7.485  1.00  0.00     0.047 A 
ATOM     28  C   UNL     1      11.950  20.289   7.148  1.00  0.00     0.115 A 
BRANCH  28  29
ATOM     29  O   UNL     1      10.979  21.234   7.284  1.00  0.00    -0.508 OA
ATOM     30  H   UNL     1      11.077  21.661   8.151  1.00  0.00     0.293 HD
ENDBRANCH  28  29
ENDBRANCH   3  23
TORSDOF 6
ENDMDL
MODEL 9
REMARK VINA RESULT:      -7.2      2.575      6.858
REMARK SMILES C=CC(=O)N1CC[C@H](Oc2cc(-c3ccc(O)cc3)cn3cncc23)C(F)(F)C1
REMARK SMILES IDX 10 1 11 2 12 3 20 4 21 5 22 6 23 7 24 8 25 9 9 10 8 11 5 12
REMARK SMILES IDX 6 13 29 14 7 15 26 16 27 17 28 18 3 19 4 20 2 21 1 22 13 23
REMARK SMILES IDX 14 24 19 25 15 26 18 27 16 28 17 29
REMARK H PARENT 17 30
ROOT
ATOM      1  C   UNL     1      14.663  12.507   3.066  1.00  0.00     0.146 A 
ATOM      2  C   UNL     1      15.379  13.624   3.302  1.00  0.00     0.059 A 
ATOM      3  C   UNL     1      16.433  13.669   4.322  1.00  0.00     0.002 A 
ATOM      4  C   UNL     1      16.695  12.534   5.005  1.00  0.00     0.101 A 
ATOM      5  N   UNL     1      15.972  11.379   4.723  1.00  0.00    -0.302 N 
ATOM      6  C   UNL     1      16.068  10.125   5.274  1.00  0.00     0.204 A 
ATOM      7  N   UNL     1      15.218   9.278   4.732  1.00  0.00    -0.244 NA
ATOM      8  C   UNL     1      14.543  10.005   3.781  1.00  0.00     0.143 A 
ATOM      9  C   UNL     1      14.968  11.314   3.770  1.00  0.00     0.107 A 
ENDROOT
BRANCH   1  10
ATOM     10  O   UNL     1      13.696  12.438   2.093  1.00  0.00    -0.482 OA
BRANCH  10  11
ATOM     11  C   UNL     1      12.985  13.685   1.933  1.00  0.00     0.246 C 
ATOM     12  N   UNL     1      10.976  15.535   1.287  1.00  0.00    -0.333 N 
ATOM     13  C   UNL     1      11.262  14.561   0.241  1.00  0.00     0.124 C 
ATOM     14  C   UNL     1      10.989  15.016   2.668  1.00  0.00     0.200 C 
ATOM     15  C   UNL     1      12.603  13.861   0.455  1.00  0.00     0.073 C 
ATOM     16  C   UNL     1      11.747  13.695   2.830  1.00  0.00     0.301 C 
ATOM     17  F   UNL     1      12.095  13.539   4.133  1.00  0.00    -0.201 F 
ATOM     18  F   UNL     1      10.924  12.660   2.518  1.00  0.00    -0.201 F 
BRANCH  12  19
ATOM     19  C   UNL     1      10.295  16.689   0.924  1.00  0.00     0.246 C 
ATOM     20  O   UNL     1      10.274  17.716   1.597  1.00  0.00    -0.270 OA
BRANCH  19  21
ATOM     21  C   UNL     1       9.579  16.683  -0.374  1.00  0.00     0.063 C 
ATOM     22  C   UNL     1       8.727  17.660  -0.709  1.00  0.00     0.014 C 
ENDBRANCH  19  21
ENDBRANCH  12  19
ENDBRANCH  10  11
ENDBRANCH   1  10
BRANCH   3  23
ATOM     23  C   UNL     1      17.197  14.887   4.633  1.00  0.00    -0.017 A 
ATOM     24  C   UNL     1      16.526  16.078   4.943  1.00  0.00     0.012 A 
ATOM     25  C   UNL     1      18.599  14.876   4.611  1.00  0.00     0.012 A 
ATOM     26  C   UNL     1      17.243  17.240   5.236  1.00  0.00     0.047 A 
ATOM     27  C   UNL     1      19.316  16.038   4.904  1.00  0.00     0.047 A 
ATOM     28  C   UNL     1      18.634  17.209   5.215  1.00  0.00     0.115 A 
BRANCH  28  29
ATOM     29  O   UNL     1      19.374  18.318   5.494  1.00  0.00    -0.508 OA
ATOM     30  H   UNL     1      20.296  18.151   5.237  1.00  0.00     0.293 HD
ENDBRANCH  28  29
ENDBRANCH   3  23
TORSDOF 6
ENDMDL
