MODEL 1
REMARK VINA RESULT:      -8.7      0.000      0.000
REMARK SMILES C=CCOC(=O)N1[C@@H]2CCC[C@H]1C[C@H](Nc1nc(Nc3cc(C)[nH]n3)cc3nc(CN4CCOCC4)ccc13)C2
REMARK SMILES IDX 7 1 8 2 9 3 10 4 11 5 12 6 13 7 14 8 40 9 5 10 6 11 4 12
REMARK SMILES IDX 3 13 2 14 1 15 15 16 16 18 17 19 39 20 18 21 38 22 27 23
REMARK SMILES IDX 26 24 37 25 28 26 29 27 19 28 20 30 21 31 25 32 22 33 24 34
REMARK SMILES IDX 23 35 30 37 31 38 32 39 36 40 33 41 35 42 34 43
REMARK H PARENT 15 17 19 29 24 36
ROOT
ATOM      1  N   UNL     1      16.167  15.309   5.531  1.00  0.00    -0.302 N 
ATOM      2  C   UNL     1      17.112  14.628   4.644  1.00  0.00     0.091 C 
ATOM      3  C   UNL     1      16.488  14.426   3.247  1.00  0.00     0.025 C 
ATOM      4  C   UNL     1      15.028  14.875   3.168  1.00  0.00     0.004 C 
ATOM      5  C   UNL     1      14.199  14.392   4.359  1.00  0.00     0.025 C 
ATOM      6  C   UNL     1      14.908  14.589   5.715  1.00  0.00     0.091 C 
ATOM      7  C   UNL     1      15.208  13.253   6.423  1.00  0.00     0.050 C 
ATOM      8  C   UNL     1      16.288  12.456   5.670  1.00  0.00     0.084 C 
ATOM      9  C   UNL     1      17.523  13.298   5.307  1.00  0.00     0.050 C 
ENDROOT
BRANCH   1  10
ATOM     10  C   UNL     1      16.548  16.276   6.449  1.00  0.00     0.410 C 
ATOM     11  O   UNL     1      16.705  16.060   7.644  1.00  0.00    -0.224 OA
BRANCH  10  12
ATOM     12  O   UNL     1      16.716  17.494   5.872  1.00  0.00    -0.445 OA
BRANCH  12  13
ATOM     13  C   UNL     1      17.943  18.170   6.162  1.00  0.00     0.262 C 
BRANCH  13  14
ATOM     14  C   UNL     1      18.984  17.733   5.177  1.00  0.00     0.006 C 
ATOM     15  C   UNL     1      19.943  16.832   5.419  1.00  0.00     0.007 C 
ENDBRANCH  13  14
ENDBRANCH  12  13
ENDBRANCH  10  12
ENDBRANCH   1  10
BRANCH   8  16
ATOM     16  N   UNL     1      16.620  11.170   6.298  1.00  0.00    -0.367 N 
ATOM     17  H   UNL     1      16.234  11.113   7.238  1.00  0.00     0.162 HD
BRANCH  16  18
ATOM     18  C   UNL     1      16.392   9.941   5.659  1.00  0.00     0.138 A 
ATOM     19  N   UNL     1      15.724   9.913   4.491  1.00  0.00    -0.213 NA
ATOM     20  C   UNL     1      16.901   8.759   6.249  1.00  0.00     0.043 A 
ATOM     21  C   UNL     1      15.500   8.731   3.877  1.00  0.00     0.136 A 
ATOM     22  C   UNL     1      17.661   8.710   7.438  1.00  0.00     0.016 A 
ATOM     23  C   UNL     1      16.648   7.539   5.609  1.00  0.00     0.078 A 
ATOM     24  C   UNL     1      15.938   7.542   4.428  1.00  0.00     0.076 A 
ATOM     25  C   UNL     1      18.120   7.496   7.936  1.00  0.00     0.026 A 
ATOM     26  N   UNL     1      17.084   6.358   6.093  1.00  0.00    -0.251 NA
ATOM     27  C   UNL     1      17.816   6.339   7.234  1.00  0.00     0.055 A 
BRANCH  21  28
ATOM     28  N   UNL     1      14.817   8.823   2.662  1.00  0.00    -0.323 N 
ATOM     29  H   UNL     1      15.319   8.261   1.986  1.00  0.00     0.170 HD
BRANCH  28  30
ATOM     30  C   UNL     1      13.694   9.476   2.297  1.00  0.00     0.153 A 
ATOM     31  C   UNL     1      13.408  10.783   2.767  1.00  0.00     0.071 A 
ATOM     32  N   UNL     1      12.719   9.047   1.491  1.00  0.00    -0.158 NA
ATOM     33  C   UNL     1      12.199  11.130   2.207  1.00  0.00     0.034 A 
ATOM     34  N   UNL     1      11.838  10.054   1.450  1.00  0.00    -0.281 N 
ATOM     35  C   UNL     1      11.371  12.351   2.303  1.00  0.00     0.066 C 
ATOM     36  H   UNL     1      11.005   9.937   0.880  1.00  0.00     0.190 HD
ENDBRANCH  28  30
ENDBRANCH  21  28
BRANCH  27  37
ATOM     37  C   UNL     1      18.308   4.988   7.724  1.00  0.00     0.140 C 
BRANCH  37  38
ATOM     38  N   UNL     1      17.603   3.836   7.126  1.00  0.00    -0.293 NA
ATOM     39  C   UNL     1      17.073   2.932   8.171  1.00  0.00     0.113 C 
ATOM     40  C   UNL     1      18.497   3.092   6.207  1.00  0.00     0.113 C 
ATOM     41  C   UNL     1      17.946   1.691   8.414  1.00  0.00     0.175 C 
ATOM     42  C   UNL     1      18.048   1.634   6.025  1.00  0.00     0.175 C 
ATOM     43  O   UNL     1      18.092   0.879   7.244  1.00  0.00    -0.379 OA
ENDBRANCH  37  38
ENDBRANCH  27  37
ENDBRANCH  16  18
ENDBRANCH   8  16
TORSDOF 10
ENDMDL
MODEL 2
REMARK VINA RESULT:      -7.8      1.733      2.141
REMARK SMILES C=CCOC(=O)N1[C@@H]2CCC[C@H]1C[C@H](Nc1nc(Nc3cc(C)[nH]n3)cc3nc(CN4CCOCC4)ccc13)C2
REMARK SMILES IDX 7 1 8 2 9 3 10 4 11 5 12 6 13 7 14 8 40 9 5 10 6 11 4 12
REMARK SMILES IDX 3 13 2 14 1 15 15 16 16 18 17 19 39 20 18 21 38 22 27 23
REMARK SMILES IDX 26 24 37 25 28 26 29 27 19 28 20 30 21 31 25 32 22 33 24 34
REMARK SMILES IDX 23 35 30 37 31 38 32 39 36 40 33 41 35 42 34 43
REMARK H PARENT 15 17 19 29 24 36
ROOT
ATOM      1  N   UNL     1      17.338  15.557   6.002  1.00  0.00    -0.302 N 
ATOM      2  C   UNL     1      16.920  15.700   4.606  1.00  0.00     0.091 C 
ATOM      3  C   UNL     1      15.390  15.886   4.519  1.00  0.00     0.025 C 
ATOM      4  C   UNL     1      14.690  15.766   5.874  1.00  0.00     0.004 C 
ATOM      5  C   UNL     1      15.183  14.568   6.686  1.00  0.00     0.025 C 
ATOM      6  C   UNL     1      16.720  14.424   6.689  1.00  0.00     0.091 C 
ATOM      7  C   UNL     1      17.193  13.123   6.011  1.00  0.00     0.050 C 
ATOM      8  C   UNL     1      16.931  13.162   4.494  1.00  0.00     0.084 C 
ATOM      9  C   UNL     1      17.411  14.463   3.827  1.00  0.00     0.050 C 
ENDROOT
BRANCH   1  10
ATOM     10  C   UNL     1      18.499  16.120   6.509  1.00  0.00     0.410 C 
ATOM     11  O   UNL     1      18.768  16.176   7.703  1.00  0.00    -0.224 OA
BRANCH  10  12
ATOM     12  O   UNL     1      19.301  16.613   5.529  1.00  0.00    -0.445 OA
BRANCH  12  13
ATOM     13  C   UNL     1      20.647  16.129   5.508  1.00  0.00     0.262 C 
BRANCH  13  14
ATOM     14  C   UNL     1      20.658  14.745   4.936  1.00  0.00     0.006 C 
ATOM     15  C   UNL     1      21.239  13.681   5.506  1.00  0.00     0.007 C 
ENDBRANCH  13  14
ENDBRANCH  12  13
ENDBRANCH  10  12
ENDBRANCH   1  10
BRANCH   8  16
ATOM     16  N   UNL     1      17.362  11.948   3.788  1.00  0.00    -0.367 N 
ATOM     17  H   UNL     1      18.377  11.890   3.750  1.00  0.00     0.162 HD
BRANCH  16  18
ATOM     18  C   UNL     1      16.865  10.675   4.112  1.00  0.00     0.138 A 
ATOM     19  N   UNL     1      15.613  10.340   3.752  1.00  0.00    -0.213 NA
ATOM     20  C   UNL     1      17.711   9.761   4.784  1.00  0.00     0.043 A 
ATOM     21  C   UNL     1      15.131   9.117   4.066  1.00  0.00     0.136 A 
ATOM     22  C   UNL     1      19.054  10.014   5.142  1.00  0.00     0.016 A 
ATOM     23  C   UNL     1      17.195   8.503   5.116  1.00  0.00     0.078 A 
ATOM     24  C   UNL     1      15.899   8.200   4.758  1.00  0.00     0.076 A 
ATOM     25  C   UNL     1      19.806   9.047   5.799  1.00  0.00     0.026 A 
ATOM     26  N   UNL     1      17.917   7.565   5.762  1.00  0.00    -0.251 NA
ATOM     27  C   UNL     1      19.206   7.831   6.090  1.00  0.00     0.055 A 
BRANCH  21  28
ATOM     28  N   UNL     1      13.828   8.871   3.625  1.00  0.00    -0.323 N 
ATOM     29  H   UNL     1      13.484   8.062   4.127  1.00  0.00     0.170 HD
BRANCH  28  30
ATOM     30  C   UNL     1      13.038   9.495   2.728  1.00  0.00     0.153 A 
ATOM     31  C   UNL     1      12.605  10.832   2.922  1.00  0.00     0.071 A 
ATOM     32  N   UNL     1      12.552   9.010   1.582  1.00  0.00    -0.158 NA
ATOM     33  C   UNL     1      11.822  11.138   1.832  1.00  0.00     0.034 A 
ATOM     34  N   UNL     1      11.831  10.011   1.063  1.00  0.00    -0.281 N 
ATOM     35  C   UNL     1      11.089  12.362   1.444  1.00  0.00     0.066 C 
ATOM     36  H   UNL     1      11.367   9.854   0.173  1.00  0.00     0.190 HD
ENDBRANCH  28  30
ENDBRANCH  21  28
BRANCH  27  37
ATOM     37  C   UNL     1      19.987   6.734   6.791  1.00  0.00     0.140 C 
BRANCH  37  38
ATOM     38  N   UNL     1      19.309   5.421   6.800  1.00  0.00    -0.293 NA
ATOM     39  C   UNL     1      18.947   5.015   8.177  1.00  0.00     0.113 C 
ATOM     40  C   UNL     1      20.160   4.386   6.165  1.00  0.00     0.113 C 
ATOM     41  C   UNL     1      19.923   4.006   8.799  1.00  0.00     0.175 C 
ATOM     42  C   UNL     1      19.798   2.972   6.645  1.00  0.00     0.175 C 
ATOM     43  O   UNL     1      20.011   2.788   8.052  1.00  0.00    -0.379 OA
ENDBRANCH  37  38
ENDBRANCH  27  37
ENDBRANCH  16  18
ENDBRANCH   8  16
TORSDOF 10
ENDMDL
MODEL 3
REMARK VINA RESULT:      -7.6      2.639      5.661
REMARK SMILES C=CCOC(=O)N1[C@@H]2CCC[C@H]1C[C@H](Nc1nc(Nc3cc(C)[nH]n3)cc3nc(CN4CCOCC4)ccc13)C2
REMARK SMILES IDX 7 1 8 2 9 3 10 4 11 5 12 6 13 7 14 8 40 9 5 10 6 11 4 12
REMARK SMILES IDX 3 13 2 14 1 15 15 16 16 18 17 19 39 20 18 21 38 22 27 23
REMARK SMILES IDX 26 24 37 25 28 26 29 27 19 28 20 30 21 31 25 32 22 33 24 34
REMARK SMILES IDX 23 35 30 37 31 38 32 39 36 40 33 41 35 42 34 43
REMARK H PARENT 15 17 19 29 24 36
ROOT
ATOM      1  N   UNL     1      14.347  15.471   3.488  1.00  0.00    -0.302 N 
ATOM      2  C   UNL     1      14.476  15.283   4.935  1.00  0.00     0.091 C 
ATOM      3  C   UNL     1      15.677  16.088   5.476  1.00  0.00     0.025 C 
ATOM      4  C   UNL     1      16.486  16.777   4.376  1.00  0.00     0.004 C 
ATOM      5  C   UNL     1      16.766  15.857   3.187  1.00  0.00     0.025 C 
ATOM      6  C   UNL     1      15.528  15.055   2.733  1.00  0.00     0.091 C 
ATOM      7  C   UNL     1      15.712  13.534   2.910  1.00  0.00     0.050 C 
ATOM      8  C   UNL     1      15.747  13.150   4.401  1.00  0.00     0.084 C 
ATOM      9  C   UNL     1      14.601  13.772   5.216  1.00  0.00     0.050 C 
ENDROOT
BRANCH   1  10
ATOM     10  C   UNL     1      13.126  15.595   2.844  1.00  0.00     0.410 C 
ATOM     11  O   UNL     1      12.137  16.113   3.347  1.00  0.00    -0.224 OA
BRANCH  10  12
ATOM     12  O   UNL     1      13.150  15.065   1.593  1.00  0.00    -0.445 OA
BRANCH  12  13
ATOM     13  C   UNL     1      12.066  14.195   1.252  1.00  0.00     0.262 C 
BRANCH  13  14
ATOM     14  C   UNL     1      12.275  12.873   1.922  1.00  0.00     0.006 C 
ATOM     15  C   UNL     1      11.394  12.272   2.732  1.00  0.00     0.007 C 
ENDBRANCH  13  14
ENDBRANCH  12  13
ENDBRANCH  10  12
ENDBRANCH   1  10
BRANCH   8  16
ATOM     16  N   UNL     1      15.919  11.710   4.636  1.00  0.00    -0.367 N 
ATOM     17  H   UNL     1      15.440  11.165   3.922  1.00  0.00     0.162 HD
BRANCH  16  18
ATOM     18  C   UNL     1      17.179  11.130   4.855  1.00  0.00     0.138 A 
ATOM     19  N   UNL     1      18.277  11.908   4.859  1.00  0.00    -0.213 NA
ATOM     20  C   UNL     1      17.258   9.738   5.098  1.00  0.00     0.043 A 
ATOM     21  C   UNL     1      19.490  11.351   5.066  1.00  0.00     0.136 A 
ATOM     22  C   UNL     1      16.150   8.865   5.170  1.00  0.00     0.016 A 
ATOM     23  C   UNL     1      18.523   9.171   5.296  1.00  0.00     0.078 A 
ATOM     24  C   UNL     1      19.631   9.992   5.267  1.00  0.00     0.076 A 
ATOM     25  C   UNL     1      16.332   7.509   5.419  1.00  0.00     0.026 A 
ATOM     26  N   UNL     1      18.705   7.856   5.529  1.00  0.00    -0.251 NA
ATOM     27  C   UNL     1      17.624   7.040   5.597  1.00  0.00     0.055 A 
BRANCH  21  28
ATOM     28  N   UNL     1      20.556  12.255   5.070  1.00  0.00    -0.323 N 
ATOM     29  H   UNL     1      21.365  11.775   4.697  1.00  0.00     0.170 HD
BRANCH  28  30
ATOM     30  C   UNL     1      20.652  13.546   5.449  1.00  0.00     0.153 A 
ATOM     31  C   UNL     1      20.737  13.916   6.815  1.00  0.00     0.071 A 
ATOM     32  N   UNL     1      20.679  14.631   4.670  1.00  0.00    -0.158 NA
ATOM     33  C   UNL     1      20.814  15.291   6.832  1.00  0.00     0.034 A 
ATOM     34  N   UNL     1      20.780  15.662   5.519  1.00  0.00    -0.281 N 
ATOM     35  C   UNL     1      20.924  16.268   7.935  1.00  0.00     0.066 C 
ATOM     36  H   UNL     1      20.820  16.599   5.130  1.00  0.00     0.190 HD
ENDBRANCH  28  30
ENDBRANCH  21  28
BRANCH  27  37
ATOM     37  C   UNL     1      17.877   5.571   5.889  1.00  0.00     0.140 C 
BRANCH  37  38
ATOM     38  N   UNL     1      19.250   5.275   6.348  1.00  0.00    -0.293 NA
ATOM     39  C   UNL     1      19.787   4.065   5.685  1.00  0.00     0.113 C 
ATOM     40  C   UNL     1      19.287   5.113   7.822  1.00  0.00     0.113 C 
ATOM     41  C   UNL     1      19.711   2.800   6.553  1.00  0.00     0.175 C 
ATOM     42  C   UNL     1      20.487   4.268   8.276  1.00  0.00     0.175 C 
ATOM     43  O   UNL     1      20.444   2.923   7.776  1.00  0.00    -0.379 OA
ENDBRANCH  37  38
ENDBRANCH  27  37
ENDBRANCH  16  18
ENDBRANCH   8  16
TORSDOF 10
ENDMDL
MODEL 4
REMARK VINA RESULT:      -7.3     27.182     32.345
REMARK SMILES C=CCOC(=O)N1[C@@H]2CCC[C@H]1C[C@H](Nc1nc(Nc3cc(C)[nH]n3)cc3nc(CN4CCOCC4)ccc13)C2
REMARK SMILES IDX 7 1 8 2 9 3 10 4 11 5 12 6 13 7 14 8 40 9 5 10 6 11 4 12
REMARK SMILES IDX 3 13 2 14 1 15 15 16 16 18 17 19 39 20 18 21 38 22 27 23
REMARK SMILES IDX 26 24 37 25 28 26 29 27 19 28 20 30 21 31 25 32 22 33 24 34
REMARK SMILES IDX 23 35 30 37 31 38 32 39 36 40 33 41 35 42 34 43
REMARK H PARENT 15 17 19 29 24 36
ROOT
ATOM      1  N   UNL     1      14.050  27.880 -19.475  1.00  0.00    -0.302 N 
ATOM      2  C   UNL     1      13.584  29.026 -18.690  1.00  0.00     0.091 C 
ATOM      3  C   UNL     1      13.290  30.226 -19.614  1.00  0.00     0.025 C 
ATOM      4  C   UNL     1      13.657  29.966 -21.076  1.00  0.00     0.004 C 
ATOM      5  C   UNL     1      15.030  29.311 -21.230  1.00  0.00     0.025 C 
ATOM      6  C   UNL     1      15.264  28.148 -20.243  1.00  0.00     0.091 C 
ATOM      7  C   UNL     1      16.415  28.434 -19.257  1.00  0.00     0.050 C 
ATOM      8  C   UNL     1      16.033  29.550 -18.268  1.00  0.00     0.084 C 
ATOM      9  C   UNL     1      14.651  29.346 -17.624  1.00  0.00     0.050 C 
ENDROOT
BRANCH   1  10
ATOM     10  C   UNL     1      13.682  26.572 -19.201  1.00  0.00     0.410 C 
ATOM     11  O   UNL     1      12.631  26.065 -19.574  1.00  0.00    -0.224 OA
BRANCH  10  12
ATOM     12  O   UNL     1      14.617  25.919 -18.463  1.00  0.00    -0.445 OA
BRANCH  12  13
ATOM     13  C   UNL     1      14.218  24.666 -17.898  1.00  0.00     0.262 C 
BRANCH  13  14
ATOM     14  C   UNL     1      15.156  24.313 -16.786  1.00  0.00     0.006 C 
ATOM     15  C   UNL     1      14.988  24.650 -15.501  1.00  0.00     0.007 C 
ENDBRANCH  13  14
ENDBRANCH  12  13
ENDBRANCH  10  12
ENDBRANCH   1  10
BRANCH   8  16
ATOM     16  N   UNL     1      17.090  29.868 -17.299  1.00  0.00    -0.367 N 
ATOM     17  H   UNL     1      17.613  29.034 -17.044  1.00  0.00     0.162 HD
BRANCH  16  18
ATOM     18  C   UNL     1      18.007  30.912 -17.504  1.00  0.00     0.138 A 
ATOM     19  N   UNL     1      18.980  30.770 -18.422  1.00  0.00    -0.213 NA
ATOM     20  C   UNL     1      17.863  32.105 -16.756  1.00  0.00     0.043 A 
ATOM     21  C   UNL     1      19.866  31.772 -18.616  1.00  0.00     0.136 A 
ATOM     22  C   UNL     1      16.835  32.354 -15.819  1.00  0.00     0.016 A 
ATOM     23  C   UNL     1      18.797  33.129 -16.957  1.00  0.00     0.078 A 
ATOM     24  C   UNL     1      19.799  32.942 -17.885  1.00  0.00     0.076 A 
ATOM     25  C   UNL     1      16.778  33.564 -15.136  1.00  0.00     0.026 A 
ATOM     26  N   UNL     1      18.751  34.300 -16.290  1.00  0.00    -0.251 NA
ATOM     27  C   UNL     1      17.751  34.516 -15.400  1.00  0.00     0.055 A 
BRANCH  21  28
ATOM     28  N   UNL     1      20.820  31.524 -19.608  1.00  0.00    -0.323 N 
ATOM     29  H   UNL     1      21.721  31.807 -19.242  1.00  0.00     0.170 HD
BRANCH  28  30
ATOM     30  C   UNL     1      20.727  31.007 -20.850  1.00  0.00     0.153 A 
ATOM     31  C   UNL     1      20.464  29.630 -21.064  1.00  0.00     0.071 A 
ATOM     32  N   UNL     1      20.859  31.643 -22.017  1.00  0.00    -0.158 NA
ATOM     33  C   UNL     1      20.446  29.455 -22.429  1.00  0.00     0.034 A 
ATOM     34  N   UNL     1      20.683  30.695 -22.947  1.00  0.00    -0.281 N 
ATOM     35  C   UNL     1      20.222  28.266 -23.279  1.00  0.00     0.066 C 
ATOM     36  H   UNL     1      20.740  30.968 -23.923  1.00  0.00     0.190 HD
ENDBRANCH  28  30
ENDBRANCH  21  28
BRANCH  27  37
ATOM     37  C   UNL     1      17.724  35.860 -14.694  1.00  0.00     0.140 C 
BRANCH  37  38
ATOM     38  N   UNL     1      17.365  35.785 -13.263  1.00  0.00    -0.293 NA
ATOM     39  C   UNL     1      16.117  36.529 -12.985  1.00  0.00     0.113 C 
ATOM     40  C   UNL     1      18.470  36.296 -12.417  1.00  0.00     0.113 C 
ATOM     41  C   UNL     1      16.351  37.923 -12.384  1.00  0.00     0.175 C 
ATOM     42  C   UNL     1      17.967  36.774 -11.046  1.00  0.00     0.175 C 
ATOM     43  O   UNL     1      17.056  37.879 -11.139  1.00  0.00    -0.379 OA
ENDBRANCH  37  38
ENDBRANCH  27  37
ENDBRANCH  16  18
ENDBRANCH   8  16
TORSDOF 10
ENDMDL
MODEL 5
REMARK VINA RESULT:      -6.7      2.856      5.494
REMARK SMILES C=CCOC(=O)N1[C@@H]2CCC[C@H]1C[C@H](Nc1nc(Nc3cc(C)[nH]n3)cc3nc(CN4CCOCC4)ccc13)C2
REMARK SMILES IDX 7 1 8 2 9 3 10 4 11 5 12 6 13 7 14 8 40 9 5 10 6 11 4 12
REMARK SMILES IDX 3 13 2 14 1 15 15 16 16 18 17 19 39 20 18 21 38 22 27 23
REMARK SMILES IDX 26 24 37 25 28 26 29 27 19 28 20 30 21 31 25 32 22 33 24 34
REMARK SMILES IDX 23 35 30 37 31 38 32 39 36 40 33 41 35 42 34 43
REMARK H PARENT 15 17 19 29 24 36
ROOT
ATOM      1  N   UNL     1      13.352  13.239   3.523  1.00  0.00    -0.302 N 
ATOM      2  C   UNL     1      13.824  13.571   4.869  1.00  0.00     0.091 C 
ATOM      3  C   UNL     1      14.931  14.644   4.801  1.00  0.00     0.025 C 
ATOM      4  C   UNL     1      15.333  15.008   3.371  1.00  0.00     0.004 C 
ATOM      5  C   UNL     1      15.525  13.777   2.484  1.00  0.00     0.025 C 
ATOM      6  C   UNL     1      14.401  12.731   2.640  1.00  0.00     0.091 C 
ATOM      7  C   UNL     1      14.914  11.394   3.209  1.00  0.00     0.050 C 
ATOM      8  C   UNL     1      15.344  11.545   4.679  1.00  0.00     0.084 C 
ATOM      9  C   UNL     1      14.301  12.270   5.547  1.00  0.00     0.050 C 
ENDROOT
BRANCH   1  10
ATOM     10  C   UNL     1      12.021  12.995   3.223  1.00  0.00     0.410 C 
ATOM     11  O   UNL     1      11.567  11.884   2.982  1.00  0.00    -0.224 OA
BRANCH  10  12
ATOM     12  O   UNL     1      11.279  14.133   3.216  1.00  0.00    -0.445 OA
BRANCH  12  13
ATOM     13  C   UNL     1      11.647  15.125   2.253  1.00  0.00     0.262 C 
BRANCH  13  14
ATOM     14  C   UNL     1      11.061  16.441   2.661  1.00  0.00     0.006 C 
ATOM     15  C   UNL     1      11.340  17.088   3.800  1.00  0.00     0.007 C 
ENDBRANCH  13  14
ENDBRANCH  12  13
ENDBRANCH  10  12
ENDBRANCH   1  10
BRANCH   8  16
ATOM     16  N   UNL     1      15.843  10.301   5.280  1.00  0.00    -0.367 N 
ATOM     17  H   UNL     1      15.463   9.487   4.801  1.00  0.00     0.162 HD
BRANCH  16  18
ATOM     18  C   UNL     1      17.209  10.072   5.510  1.00  0.00     0.138 A 
ATOM     19  N   UNL     1      18.013  11.106   5.817  1.00  0.00    -0.213 NA
ATOM     20  C   UNL     1      17.702   8.747   5.441  1.00  0.00     0.043 A 
ATOM     21  C   UNL     1      19.329  10.889   6.034  1.00  0.00     0.136 A 
ATOM     22  C   UNL     1      16.914   7.602   5.185  1.00  0.00     0.016 A 
ATOM     23  C   UNL     1      19.070   8.537   5.654  1.00  0.00     0.078 A 
ATOM     24  C   UNL     1      19.872   9.622   5.940  1.00  0.00     0.076 A 
ATOM     25  C   UNL     1      17.493   6.339   5.142  1.00  0.00     0.026 A 
ATOM     26  N   UNL     1      19.638   7.315   5.604  1.00  0.00    -0.251 NA
ATOM     27  C   UNL     1      18.858   6.233   5.360  1.00  0.00     0.055 A 
BRANCH  21  28
ATOM     28  N   UNL     1      20.063  12.030   6.366  1.00  0.00    -0.323 N 
ATOM     29  H   UNL     1      20.661  11.791   7.149  1.00  0.00     0.170 HD
BRANCH  28  30
ATOM     30  C   UNL     1      20.099  13.273   5.844  1.00  0.00     0.153 A 
ATOM     31  C   UNL     1      20.496  14.394   6.618  1.00  0.00     0.071 A 
ATOM     32  N   UNL     1      19.788  13.652   4.602  1.00  0.00    -0.158 NA
ATOM     33  C   UNL     1      20.407  15.483   5.780  1.00  0.00     0.034 A 
ATOM     34  N   UNL     1      19.983  14.976   4.586  1.00  0.00    -0.281 N 
ATOM     35  C   UNL     1      20.685  16.920   5.983  1.00  0.00     0.066 C 
ATOM     36  H   UNL     1      19.805  15.475   3.720  1.00  0.00     0.190 HD
ENDBRANCH  28  30
ENDBRANCH  21  28
BRANCH  27  37
ATOM     37  C   UNL     1      19.538   4.875   5.342  1.00  0.00     0.140 C 
BRANCH  37  38
ATOM     38  N   UNL     1      19.693   4.259   6.676  1.00  0.00    -0.293 NA
ATOM     39  C   UNL     1      18.580   3.329   6.969  1.00  0.00     0.113 C 
ATOM     40  C   UNL     1      19.785   5.301   7.727  1.00  0.00     0.113 C 
ATOM     41  C   UNL     1      17.495   3.931   7.875  1.00  0.00     0.175 C 
ATOM     42  C   UNL     1      19.372   4.762   9.106  1.00  0.00     0.175 C 
ATOM     43  O   UNL     1      18.002   4.336   9.152  1.00  0.00    -0.379 OA
ENDBRANCH  37  38
ENDBRANCH  27  37
ENDBRANCH  16  18
ENDBRANCH   8  16
TORSDOF 10
ENDMDL
MODEL 6
REMARK VINA RESULT:      -6.7     27.743     32.880
REMARK SMILES C=CCOC(=O)N1[C@@H]2CCC[C@H]1C[C@H](Nc1nc(Nc3cc(C)[nH]n3)cc3nc(CN4CCOCC4)ccc13)C2
REMARK SMILES IDX 7 1 8 2 9 3 10 4 11 5 12 6 13 7 14 8 40 9 5 10 6 11 4 12
REMARK SMILES IDX 3 13 2 14 1 15 15 16 16 18 17 19 39 20 18 21 38 22 27 23
REMARK SMILES IDX 26 24 37 25 28 26 29 27 19 28 20 30 21 31 25 32 22 33 24 34
REMARK SMILES IDX 23 35 30 37 31 38 32 39 36 40 33 41 35 42 34 43
REMARK H PARENT 15 17 19 29 24 36
ROOT
ATOM      1  N   UNL     1      14.108  27.993 -19.215  1.00  0.00    -0.302 N 
ATOM      2  C   UNL     1      14.149  29.434 -19.475  1.00  0.00     0.091 C 
ATOM      3  C   UNL     1      14.552  29.704 -20.940  1.00  0.00     0.025 C 
ATOM      4  C   UNL     1      14.912  28.434 -21.711  1.00  0.00     0.004 C 
ATOM      5  C   UNL     1      15.827  27.502 -20.916  1.00  0.00     0.025 C 
ATOM      6  C   UNL     1      15.382  27.317 -19.450  1.00  0.00     0.091 C 
ATOM      7  C   UNL     1      16.418  27.860 -18.445  1.00  0.00     0.050 C 
ATOM      8  C   UNL     1      16.497  29.397 -18.508  1.00  0.00     0.084 C 
ATOM      9  C   UNL     1      15.119  30.079 -18.465  1.00  0.00     0.050 C 
ENDROOT
BRANCH   1  10
ATOM     10  C   UNL     1      13.144  27.392 -18.421  1.00  0.00     0.410 C 
ATOM     11  O   UNL     1      11.951  27.365 -18.695  1.00  0.00    -0.224 OA
BRANCH  10  12
ATOM     12  O   UNL     1      13.674  26.844 -17.296  1.00  0.00    -0.445 OA
BRANCH  12  13
ATOM     13  C   UNL     1      13.507  25.431 -17.139  1.00  0.00     0.262 C 
BRANCH  13  14
ATOM     14  C   UNL     1      14.703  24.875 -16.431  1.00  0.00     0.006 C 
ATOM     15  C   UNL     1      15.823  24.449 -17.028  1.00  0.00     0.007 C 
ENDBRANCH  13  14
ENDBRANCH  12  13
ENDBRANCH  10  12
ENDBRANCH   1  10
BRANCH   8  16
ATOM     16  N   UNL     1      17.468  29.977 -17.570  1.00  0.00    -0.367 N 
ATOM     17  H   UNL     1      18.272  29.364 -17.453  1.00  0.00     0.162 HD
BRANCH  16  18
ATOM     18  C   UNL     1      17.938  31.294 -17.695  1.00  0.00     0.138 A 
ATOM     19  N   UNL     1      18.725  31.622 -18.736  1.00  0.00    -0.213 NA
ATOM     20  C   UNL     1      17.542  32.255 -16.735  1.00  0.00     0.043 A 
ATOM     21  C   UNL     1      19.181  32.888 -18.855  1.00  0.00     0.136 A 
ATOM     22  C   UNL     1      16.672  32.005 -15.650  1.00  0.00     0.016 A 
ATOM     23  C   UNL     1      18.035  33.560 -16.862  1.00  0.00     0.078 A 
ATOM     24  C   UNL     1      18.862  33.858 -17.924  1.00  0.00     0.076 A 
ATOM     25  C   UNL     1      16.341  33.021 -14.760  1.00  0.00     0.026 A 
ATOM     26  N   UNL     1      17.723  34.546 -15.996  1.00  0.00    -0.251 NA
ATOM     27  C   UNL     1      16.882  34.280 -14.966  1.00  0.00     0.055 A 
BRANCH  21  28
ATOM     28  N   UNL     1      19.972  33.121 -19.984  1.00  0.00    -0.323 N 
ATOM     29  H   UNL     1      20.916  32.829 -19.761  1.00  0.00     0.170 HD
BRANCH  28  30
ATOM     30  C   UNL     1      19.690  33.616 -21.206  1.00  0.00     0.153 A 
ATOM     31  C   UNL     1      18.459  33.337 -21.855  1.00  0.00     0.071 A 
ATOM     32  N   UNL     1      20.455  34.395 -21.975  1.00  0.00    -0.158 NA
ATOM     33  C   UNL     1      18.515  33.987 -23.068  1.00  0.00     0.034 A 
ATOM     34  N   UNL     1      19.731  34.607 -23.080  1.00  0.00    -0.281 N 
ATOM     35  C   UNL     1      17.556  34.090 -24.187  1.00  0.00     0.066 C 
ATOM     36  H   UNL     1      20.132  35.189 -23.810  1.00  0.00     0.190 HD
ENDBRANCH  28  30
ENDBRANCH  21  28
BRANCH  27  37
ATOM     37  C   UNL     1      16.539  35.429 -14.033  1.00  0.00     0.140 C 
BRANCH  37  38
ATOM     38  N   UNL     1      17.642  36.390 -13.827  1.00  0.00    -0.293 NA
ATOM     39  C   UNL     1      18.355  36.122 -12.559  1.00  0.00     0.113 C 
ATOM     40  C   UNL     1      17.135  37.783 -13.850  1.00  0.00     0.113 C 
ATOM     41  C   UNL     1      17.937  37.051 -11.408  1.00  0.00     0.175 C 
ATOM     42  C   UNL     1      18.067  38.744 -13.094  1.00  0.00     0.175 C 
ATOM     43  O   UNL     1      18.177  38.432 -11.697  1.00  0.00    -0.379 OA
ENDBRANCH  37  38
ENDBRANCH  27  37
ENDBRANCH  16  18
ENDBRANCH   8  16
TORSDOF 10
ENDMDL
MODEL 7
REMARK VINA RESULT:      -6.4     17.241     22.802
REMARK SMILES C=CCOC(=O)N1[C@@H]2CCC[C@H]1C[C@H](Nc1nc(Nc3cc(C)[nH]n3)cc3nc(CN4CCOCC4)ccc13)C2
REMARK SMILES IDX 7 1 8 2 9 3 10 4 11 5 12 6 13 7 14 8 40 9 5 10 6 11 4 12
REMARK SMILES IDX 3 13 2 14 1 15 15 16 16 18 17 19 39 20 18 21 38 22 27 23
REMARK SMILES IDX 26 24 37 25 28 26 29 27 19 28 20 30 21 31 25 32 22 33 24 34
REMARK SMILES IDX 23 35 30 37 31 38 32 39 36 40 33 41 35 42 34 43
REMARK H PARENT 15 17 19 29 24 36
ROOT
ATOM      1  N   UNL     1       7.886  34.418   2.879  1.00  0.00    -0.302 N 
ATOM      2  C   UNL     1       7.792  34.356   4.339  1.00  0.00     0.091 C 
ATOM      3  C   UNL     1       7.931  35.768   4.947  1.00  0.00     0.025 C 
ATOM      4  C   UNL     1       8.238  36.846   3.906  1.00  0.00     0.004 C 
ATOM      5  C   UNL     1       9.329  36.419   2.923  1.00  0.00     0.025 C 
ATOM      6  C   UNL     1       9.145  34.981   2.394  1.00  0.00     0.091 C 
ATOM      7  C   UNL     1      10.295  34.045   2.815  1.00  0.00     0.050 C 
ATOM      8  C   UNL     1      10.265  33.777   4.330  1.00  0.00     0.084 C 
ATOM      9  C   UNL     1       8.872  33.382   4.851  1.00  0.00     0.050 C 
ENDROOT
BRANCH   1  10
ATOM     10  C   UNL     1       7.106  33.644   2.034  1.00  0.00     0.410 C 
ATOM     11  O   UNL     1       6.839  32.466   2.237  1.00  0.00    -0.224 OA
BRANCH  10  12
ATOM     12  O   UNL     1       6.681  34.339   0.947  1.00  0.00    -0.445 OA
BRANCH  12  13
ATOM     13  C   UNL     1       7.015  33.787  -0.330  1.00  0.00     0.262 C 
BRANCH  13  14
ATOM     14  C   UNL     1       7.802  34.797  -1.107  1.00  0.00     0.006 C 
ATOM     15  C   UNL     1       9.137  34.822  -1.206  1.00  0.00     0.007 C 
ENDBRANCH  13  14
ENDBRANCH  12  13
ENDBRANCH  10  12
ENDBRANCH   1  10
BRANCH   8  16
ATOM     16  N   UNL     1      11.338  32.888   4.794  1.00  0.00    -0.367 N 
ATOM     17  H   UNL     1      12.044  33.407   5.311  1.00  0.00     0.162 HD
BRANCH  16  18
ATOM     18  C   UNL     1      11.078  31.696   5.490  1.00  0.00     0.138 A 
ATOM     19  N   UNL     1      10.707  30.597   4.809  1.00  0.00    -0.213 NA
ATOM     20  C   UNL     1      11.244  31.675   6.896  1.00  0.00     0.043 A 
ATOM     21  C   UNL     1      10.452  29.450   5.478  1.00  0.00     0.136 A 
ATOM     22  C   UNL     1      11.686  32.767   7.675  1.00  0.00     0.016 A 
ATOM     23  C   UNL     1      10.962  30.485   7.578  1.00  0.00     0.078 A 
ATOM     24  C   UNL     1      10.558  29.384   6.854  1.00  0.00     0.076 A 
ATOM     25  C   UNL     1      11.821  32.645   9.054  1.00  0.00     0.026 A 
ATOM     26  N   UNL     1      11.082  30.364   8.916  1.00  0.00    -0.251 NA
ATOM     27  C   UNL     1      11.514  31.426   9.640  1.00  0.00     0.055 A 
BRANCH  21  28
ATOM     28  N   UNL     1      10.097  28.368   4.669  1.00  0.00    -0.323 N 
ATOM     29  H   UNL     1       9.957  28.722   3.730  1.00  0.00     0.170 HD
BRANCH  28  30
ATOM     30  C   UNL     1       9.940  27.054   4.925  1.00  0.00     0.153 A 
ATOM     31  C   UNL     1       8.654  26.465   5.031  1.00  0.00     0.071 A 
ATOM     32  N   UNL     1      10.890  26.134   5.116  1.00  0.00    -0.158 NA
ATOM     33  C   UNL     1       8.868  25.132   5.301  1.00  0.00     0.034 A 
ATOM     34  N   UNL     1      10.225  24.993   5.335  1.00  0.00    -0.281 N 
ATOM     35  C   UNL     1       7.945  23.998   5.517  1.00  0.00     0.066 C 
ATOM     36  H   UNL     1      10.766  24.150   5.504  1.00  0.00     0.190 HD
ENDBRANCH  28  30
ENDBRANCH  21  28
BRANCH  27  37
ATOM     37  C   UNL     1      11.660  31.234  11.139  1.00  0.00     0.140 C 
BRANCH  37  38
ATOM     38  N   UNL     1      12.945  30.629  11.548  1.00  0.00    -0.293 NA
ATOM     39  C   UNL     1      13.905  31.663  11.993  1.00  0.00     0.113 C 
ATOM     40  C   UNL     1      13.525  29.830  10.441  1.00  0.00     0.113 C 
ATOM     41  C   UNL     1      14.944  32.042  10.926  1.00  0.00     0.175 C 
ATOM     42  C   UNL     1      15.047  29.677  10.582  1.00  0.00     0.175 C 
ATOM     43  O   UNL     1      15.745  30.929  10.514  1.00  0.00    -0.379 OA
ENDBRANCH  37  38
ENDBRANCH  27  37
ENDBRANCH  16  18
ENDBRANCH   8  16
TORSDOF 10
ENDMDL
MODEL 8
REMARK VINA RESULT:      -6.4     28.724     31.810
REMARK SMILES C=CCOC(=O)N1[C@@H]2CCC[C@H]1C[C@H](Nc1nc(Nc3cc(C)[nH]n3)cc3nc(CN4CCOCC4)ccc13)C2
REMARK SMILES IDX 7 1 8 2 9 3 10 4 11 5 12 6 13 7 14 8 40 9 5 10 6 11 4 12
REMARK SMILES IDX 3 13 2 14 1 15 15 16 16 18 17 19 39 20 18 21 38 22 27 23
REMARK SMILES IDX 26 24 37 25 28 26 29 27 19 28 20 30 21 31 25 32 22 33 24 34
REMARK SMILES IDX 23 35 30 37 31 38 32 39 36 40 33 41 35 42 34 43
REMARK H PARENT 15 17 19 29 24 36
ROOT
ATOM      1  N   UNL     1      15.794  27.106 -19.544  1.00  0.00    -0.302 N 
ATOM      2  C   UNL     1      15.799  26.227 -18.372  1.00  0.00     0.091 C 
ATOM      3  C   UNL     1      15.945  24.753 -18.807  1.00  0.00     0.025 C 
ATOM      4  C   UNL     1      15.936  24.568 -20.325  1.00  0.00     0.004 C 
ATOM      5  C   UNL     1      14.828  25.371 -21.009  1.00  0.00     0.025 C 
ATOM      6  C   UNL     1      14.717  26.820 -20.489  1.00  0.00     0.091 C 
ATOM      7  C   UNL     1      13.369  27.097 -19.795  1.00  0.00     0.050 C 
ATOM      8  C   UNL     1      13.263  26.328 -18.465  1.00  0.00     0.084 C 
ATOM      9  C   UNL     1      14.506  26.482 -17.572  1.00  0.00     0.050 C 
ENDROOT
BRANCH   1  10
ATOM     10  C   UNL     1      16.425  28.340 -19.570  1.00  0.00     0.410 C 
ATOM     11  O   UNL     1      16.502  29.048 -20.567  1.00  0.00    -0.224 OA
BRANCH  10  12
ATOM     12  O   UNL     1      16.956  28.671 -18.364  1.00  0.00    -0.445 OA
BRANCH  12  13
ATOM     13  C   UNL     1      18.316  29.115 -18.371  1.00  0.00     0.262 C 
BRANCH  13  14
ATOM     14  C   UNL     1      18.671  29.620 -17.006  1.00  0.00     0.006 C 
ATOM     15  C   UNL     1      19.901  29.616 -16.479  1.00  0.00     0.007 C 
ENDBRANCH  13  14
ENDBRANCH  12  13
ENDBRANCH  10  12
ENDBRANCH   1  10
BRANCH   8  16
ATOM     16  N   UNL     1      11.998  26.551 -17.752  1.00  0.00    -0.367 N 
ATOM     17  H   UNL     1      11.972  26.024 -16.882  1.00  0.00     0.162 HD
BRANCH  16  18
ATOM     18  C   UNL     1      11.496  27.838 -17.497  1.00  0.00     0.138 A 
ATOM     19  N   UNL     1      12.272  28.741 -16.870  1.00  0.00    -0.213 NA
ATOM     20  C   UNL     1      10.191  28.163 -17.938  1.00  0.00     0.043 A 
ATOM     21  C   UNL     1      11.789  29.978 -16.621  1.00  0.00     0.136 A 
ATOM     22  C   UNL     1       9.339  27.293 -18.655  1.00  0.00     0.016 A 
ATOM     23  C   UNL     1       9.698  29.444 -17.660  1.00  0.00     0.078 A 
ATOM     24  C   UNL     1      10.508  30.337 -16.991  1.00  0.00     0.076 A 
ATOM     25  C   UNL     1       8.072  27.709 -19.047  1.00  0.00     0.026 A 
ATOM     26  N   UNL     1       8.466  29.848 -18.031  1.00  0.00    -0.251 NA
ATOM     27  C   UNL     1       7.670  28.995 -18.722  1.00  0.00     0.055 A 
BRANCH  21  28
ATOM     28  N   UNL     1      12.688  30.839 -15.984  1.00  0.00    -0.323 N 
ATOM     29  H   UNL     1      12.350  30.990 -15.041  1.00  0.00     0.170 HD
BRANCH  28  30
ATOM     30  C   UNL     1      13.828  31.429 -16.396  1.00  0.00     0.153 A 
ATOM     31  C   UNL     1      14.317  31.264 -17.717  1.00  0.00     0.071 A 
ATOM     32  N   UNL     1      14.648  32.214 -15.691  1.00  0.00    -0.158 NA
ATOM     33  C   UNL     1      15.485  31.990 -17.783  1.00  0.00     0.034 A 
ATOM     34  N   UNL     1      15.629  32.539 -16.542  1.00  0.00    -0.281 N 
ATOM     35  C   UNL     1      16.454  32.220 -18.875  1.00  0.00     0.066 C 
ATOM     36  H   UNL     1      16.372  33.145 -16.206  1.00  0.00     0.190 HD
ENDBRANCH  28  30
ENDBRANCH  21  28
BRANCH  27  37
ATOM     37  C   UNL     1       6.302  29.505 -19.142  1.00  0.00     0.140 C 
BRANCH  37  38
ATOM     38  N   UNL     1       6.253  30.959 -19.398  1.00  0.00    -0.293 NA
ATOM     39  C   UNL     1       5.283  31.628 -18.502  1.00  0.00     0.113 C 
ATOM     40  C   UNL     1       5.917  31.232 -20.816  1.00  0.00     0.113 C 
ATOM     41  C   UNL     1       3.931  31.924 -19.169  1.00  0.00     0.175 C 
ATOM     42  C   UNL     1       5.299  32.626 -21.002  1.00  0.00     0.175 C 
ATOM     43  O   UNL     1       4.052  32.782 -20.309  1.00  0.00    -0.379 OA
ENDBRANCH  37  38
ENDBRANCH  27  37
ENDBRANCH  16  18
ENDBRANCH   8  16
TORSDOF 10
ENDMDL
MODEL 9
REMARK VINA RESULT:      -6.4     27.448     31.550
REMARK SMILES C=CCOC(=O)N1[C@@H]2CCC[C@H]1C[C@H](Nc1nc(Nc3cc(C)[nH]n3)cc3nc(CN4CCOCC4)ccc13)C2
REMARK SMILES IDX 7 1 8 2 9 3 10 4 11 5 12 6 13 7 14 8 40 9 5 10 6 11 4 12
REMARK SMILES IDX 3 13 2 14 1 15 15 16 16 18 17 19 39 20 18 21 38 22 27 23
REMARK SMILES IDX 26 24 37 25 28 26 29 27 19 28 20 30 21 31 25 32 22 33 24 34
REMARK SMILES IDX 23 35 30 37 31 38 32 39 36 40 33 41 35 42 34 43
REMARK H PARENT 15 17 19 29 24 36
ROOT
ATOM      1  N   UNL     1      13.877  25.452 -18.799  1.00  0.00    -0.302 N 
ATOM      2  C   UNL     1      15.282  25.294 -19.181  1.00  0.00     0.091 C 
ATOM      3  C   UNL     1      16.053  24.524 -18.089  1.00  0.00     0.025 C 
ATOM      4  C   UNL     1      15.205  24.218 -16.853  1.00  0.00     0.004 C 
ATOM      5  C   UNL     1      14.391  25.426 -16.386  1.00  0.00     0.025 C 
ATOM      6  C   UNL     1      13.686  26.170 -17.540  1.00  0.00     0.091 C 
ATOM      7  C   UNL     1      14.202  27.612 -17.715  1.00  0.00     0.050 C 
ATOM      8  C   UNL     1      15.650  27.623 -18.236  1.00  0.00     0.084 C 
ATOM      9  C   UNL     1      15.870  26.696 -19.444  1.00  0.00     0.050 C 
ENDROOT
BRANCH   1  10
ATOM     10  C   UNL     1      12.829  25.351 -19.700  1.00  0.00     0.410 C 
ATOM     11  O   UNL     1      11.759  24.809 -19.449  1.00  0.00    -0.224 OA
BRANCH  10  12
ATOM     12  O   UNL     1      13.127  25.915 -20.900  1.00  0.00    -0.445 OA
BRANCH  12  13
ATOM     13  C   UNL     1      12.647  27.246 -21.113  1.00  0.00     0.262 C 
BRANCH  13  14
ATOM     14  C   UNL     1      13.553  27.942 -22.080  1.00  0.00     0.006 C 
ATOM     15  C   UNL     1      14.372  27.330 -22.945  1.00  0.00     0.007 C 
ENDBRANCH  13  14
ENDBRANCH  12  13
ENDBRANCH  10  12
ENDBRANCH   1  10
BRANCH   8  16
ATOM     16  N   UNL     1      16.199  28.973 -18.426  1.00  0.00    -0.367 N 
ATOM     17  H   UNL     1      16.536  29.098 -19.378  1.00  0.00     0.162 HD
BRANCH  16  18
ATOM     18  C   UNL     1      15.494  30.129 -18.057  1.00  0.00     0.138 A 
ATOM     19  N   UNL     1      14.154  30.156 -18.174  1.00  0.00    -0.213 NA
ATOM     20  C   UNL     1      16.214  31.232 -17.539  1.00  0.00     0.043 A 
ATOM     21  C   UNL     1      13.474  31.269 -17.823  1.00  0.00     0.136 A 
ATOM     22  C   UNL     1      17.611  31.262 -17.328  1.00  0.00     0.016 A 
ATOM     23  C   UNL     1      15.498  32.386 -17.193  1.00  0.00     0.078 A 
ATOM     24  C   UNL     1      14.129  32.391 -17.350  1.00  0.00     0.076 A 
ATOM     25  C   UNL     1      18.225  32.396 -16.809  1.00  0.00     0.026 A 
ATOM     26  N   UNL     1      16.091  33.491 -16.697  1.00  0.00    -0.251 NA
ATOM     27  C   UNL     1      17.433  33.491 -16.501  1.00  0.00     0.055 A 
BRANCH  21  28
ATOM     28  N   UNL     1      12.087  31.177 -17.966  1.00  0.00    -0.323 N 
ATOM     29  H   UNL     1      11.770  32.025 -18.421  1.00  0.00     0.170 HD
BRANCH  28  30
ATOM     30  C   UNL     1      11.200  30.218 -17.631  1.00  0.00     0.153 A 
ATOM     31  C   UNL     1      10.613  29.375 -18.609  1.00  0.00     0.071 A 
ATOM     32  N   UNL     1      10.743  29.910 -16.414  1.00  0.00    -0.158 NA
ATOM     33  C   UNL     1       9.765  28.533 -17.923  1.00  0.00     0.034 A 
ATOM     34  N   UNL     1       9.890  28.898 -16.614  1.00  0.00    -0.281 N 
ATOM     35  C   UNL     1       8.877  27.438 -18.365  1.00  0.00     0.066 C 
ATOM     36  H   UNL     1       9.422  28.501 -15.804  1.00  0.00     0.190 HD
ENDBRANCH  28  30
ENDBRANCH  21  28
BRANCH  27  37
ATOM     37  C   UNL     1      18.051  34.748 -15.915  1.00  0.00     0.140 C 
BRANCH  37  38
ATOM     38  N   UNL     1      17.279  35.339 -14.802  1.00  0.00    -0.293 NA
ATOM     39  C   UNL     1      16.654  36.619 -15.204  1.00  0.00     0.113 C 
ATOM     40  C   UNL     1      18.142  35.537 -13.613  1.00  0.00     0.113 C 
ATOM     41  C   UNL     1      17.425  37.858 -14.725  1.00  0.00     0.175 C 
ATOM     42  C   UNL     1      17.590  36.627 -12.680  1.00  0.00     0.175 C 
ATOM     43  O   UNL     1      17.543  37.921 -13.300  1.00  0.00    -0.379 OA
ENDBRANCH  37  38
ENDBRANCH  27  37
ENDBRANCH  16  18
ENDBRANCH   8  16
TORSDOF 10
ENDMDL
