MODEL 1
REMARK VINA RESULT:      -6.4      0.000      0.000
REMARK SMILES C=CCOC(=O)N1[C@@H]2CCC[C@H]1C[C@@H](Nc1nc(Nc3cc(C)[nH]n3)cc3nc(CN4CCOCC4)ccc13)C2
REMARK SMILES IDX 7 1 8 2 9 3 10 4 11 5 12 6 13 7 14 8 40 9 5 10 6 11 4 12
REMARK SMILES IDX 3 13 2 14 1 15 15 16 16 18 17 19 39 20 18 21 38 22 27 23
REMARK SMILES IDX 26 24 37 25 28 26 29 27 19 28 20 30 21 31 25 32 22 33 24 34
REMARK SMILES IDX 23 35 30 37 31 38 32 39 36 40 33 41 35 42 34 43
REMARK H PARENT 15 17 19 29 24 36
ROOT
ATOM      1  N   UNL     1       8.496  35.447   2.249  1.00  0.00    -0.302 N 
ATOM      2  C   UNL     1       7.678  36.623   1.969  1.00  0.00     0.091 C 
ATOM      3  C   UNL     1       6.215  36.226   1.693  1.00  0.00     0.025 C 
ATOM      4  C   UNL     1       5.998  34.716   1.623  1.00  0.00     0.004 C 
ATOM      5  C   UNL     1       7.084  33.992   0.831  1.00  0.00     0.025 C 
ATOM      6  C   UNL     1       8.507  34.489   1.148  1.00  0.00     0.091 C 
ATOM      7  C   UNL     1       9.204  35.144  -0.057  1.00  0.00     0.050 C 
ATOM      8  C   UNL     1       8.632  36.528  -0.441  1.00  0.00     0.084 C 
ATOM      9  C   UNL     1       8.332  37.394   0.806  1.00  0.00     0.050 C 
ENDROOT
BRANCH   1  10
ATOM     10  C   UNL     1       9.540  35.446   3.161  1.00  0.00     0.410 C 
ATOM     11  O   UNL     1      10.226  36.430   3.413  1.00  0.00    -0.224 OA
BRANCH  10  12
ATOM     12  O   UNL     1       9.709  34.233   3.751  1.00  0.00    -0.445 OA
BRANCH  12  13
ATOM     13  C   UNL     1       9.066  34.047   5.016  1.00  0.00     0.262 C 
BRANCH  13  14
ATOM     14  C   UNL     1       8.140  32.871   4.917  1.00  0.00     0.006 C 
ATOM     15  C   UNL     1       6.858  32.939   4.535  1.00  0.00     0.007 C 
ENDBRANCH  13  14
ENDBRANCH  12  13
ENDBRANCH  10  12
ENDBRANCH   1  10
BRANCH   8  16
ATOM     16  N   UNL     1       7.418  36.413  -1.266  1.00  0.00    -0.367 N 
ATOM     17  H   UNL     1       6.923  37.301  -1.335  1.00  0.00     0.162 HD
BRANCH  16  18
ATOM     18  C   UNL     1       7.584  35.957  -2.596  1.00  0.00     0.138 A 
ATOM     19  N   UNL     1       7.364  34.658  -2.874  1.00  0.00    -0.213 NA
ATOM     20  C   UNL     1       7.974  36.877  -3.592  1.00  0.00     0.043 A 
ATOM     21  C   UNL     1       7.534  34.210  -4.136  1.00  0.00     0.136 A 
ATOM     22  C   UNL     1       8.187  38.256  -3.375  1.00  0.00     0.016 A 
ATOM     23  C   UNL     1       8.153  36.399  -4.897  1.00  0.00     0.078 A 
ATOM     24  C   UNL     1       7.931  35.060  -5.151  1.00  0.00     0.076 A 
ATOM     25  C   UNL     1       8.572  39.082  -4.424  1.00  0.00     0.026 A 
ATOM     26  N   UNL     1       8.529  37.197  -5.916  1.00  0.00    -0.251 NA
ATOM     27  C   UNL     1       8.731  38.519  -5.682  1.00  0.00     0.055 A 
BRANCH  21  28
ATOM     28  N   UNL     1       7.281  32.849  -4.300  1.00  0.00    -0.323 N 
ATOM     29  H   UNL     1       8.128  32.424  -4.657  1.00  0.00     0.170 HD
BRANCH  28  30
ATOM     30  C   UNL     1       6.193  32.085  -4.081  1.00  0.00     0.153 A 
ATOM     31  C   UNL     1       4.884  32.611  -4.221  1.00  0.00     0.071 A 
ATOM     32  N   UNL     1       6.146  30.801  -3.720  1.00  0.00    -0.158 NA
ATOM     33  C   UNL     1       4.027  31.576  -3.926  1.00  0.00     0.034 A 
ATOM     34  N   UNL     1       4.840  30.516  -3.636  1.00  0.00    -0.281 N 
ATOM     35  C   UNL     1       2.554  31.481  -3.891  1.00  0.00     0.066 C 
ATOM     36  H   UNL     1       4.572  29.574  -3.373  1.00  0.00     0.190 HD
ENDBRANCH  28  30
ENDBRANCH  21  28
BRANCH  27  37
ATOM     37  C   UNL     1       9.155  39.378  -6.860  1.00  0.00     0.140 C 
BRANCH  37  38
ATOM     38  N   UNL     1       8.340  40.598  -7.038  1.00  0.00    -0.293 NA
ATOM     39  C   UNL     1       6.946  40.262  -7.408  1.00  0.00     0.113 C 
ATOM     40  C   UNL     1       8.944  41.488  -8.059  1.00  0.00     0.113 C 
ATOM     41  C   UNL     1       6.662  40.385  -8.913  1.00  0.00     0.175 C 
ATOM     42  C   UNL     1       7.901  42.420  -8.695  1.00  0.00     0.175 C 
ATOM     43  O   UNL     1       6.884  41.709  -9.416  1.00  0.00    -0.379 OA
ENDBRANCH  37  38
ENDBRANCH  27  37
ENDBRANCH  16  18
ENDBRANCH   8  16
TORSDOF 10
ENDMDL
MODEL 2
REMARK VINA RESULT:      -6.4      1.557      2.030
REMARK SMILES C=CCOC(=O)N1[C@@H]2CCC[C@H]1C[C@@H](Nc1nc(Nc3cc(C)[nH]n3)cc3nc(CN4CCOCC4)ccc13)C2
REMARK SMILES IDX 7 1 8 2 9 3 10 4 11 5 12 6 13 7 14 8 40 9 5 10 6 11 4 12
REMARK SMILES IDX 3 13 2 14 1 15 15 16 16 18 17 19 39 20 18 21 38 22 27 23
REMARK SMILES IDX 26 24 37 25 28 26 29 27 19 28 20 30 21 31 25 32 22 33 24 34
REMARK SMILES IDX 23 35 30 37 31 38 32 39 36 40 33 41 35 42 34 43
REMARK H PARENT 15 17 19 29 24 36
ROOT
ATOM      1  N   UNL     1       8.186  35.793   2.434  1.00  0.00    -0.302 N 
ATOM      2  C   UNL     1       7.585  36.993   1.858  1.00  0.00     0.091 C 
ATOM      3  C   UNL     1       6.075  36.796   1.624  1.00  0.00     0.025 C 
ATOM      4  C   UNL     1       5.598  35.371   1.896  1.00  0.00     0.004 C 
ATOM      5  C   UNL     1       6.539  34.308   1.336  1.00  0.00     0.025 C 
ATOM      6  C   UNL     1       8.028  34.616   1.586  1.00  0.00     0.091 C 
ATOM      7  C   UNL     1       8.827  34.842   0.290  1.00  0.00     0.050 C 
ATOM      8  C   UNL     1       8.504  36.174  -0.426  1.00  0.00     0.084 C 
ATOM      9  C   UNL     1       8.362  37.346   0.575  1.00  0.00     0.050 C 
ENDROOT
BRANCH   1  10
ATOM     10  C   UNL     1       9.216  35.829   3.362  1.00  0.00     0.410 C 
ATOM     11  O   UNL     1      10.229  36.505   3.231  1.00  0.00    -0.224 OA
BRANCH  10  12
ATOM     12  O   UNL     1       8.968  35.035   4.438  1.00  0.00    -0.445 OA
BRANCH  12  13
ATOM     13  C   UNL     1       7.678  35.172   5.044  1.00  0.00     0.262 C 
BRANCH  13  14
ATOM     14  C   UNL     1       7.611  36.499   5.739  1.00  0.00     0.006 C 
ATOM     15  C   UNL     1       8.191  36.776   6.915  1.00  0.00     0.007 C 
ENDBRANCH  13  14
ENDBRANCH  12  13
ENDBRANCH  10  12
ENDBRANCH   1  10
BRANCH   8  16
ATOM     16  N   UNL     1       7.288  36.077  -1.249  1.00  0.00    -0.367 N 
ATOM     17  H   UNL     1       6.794  36.967  -1.299  1.00  0.00     0.162 HD
BRANCH  16  18
ATOM     18  C   UNL     1       7.449  35.647  -2.588  1.00  0.00     0.138 A 
ATOM     19  N   UNL     1       7.232  34.352  -2.889  1.00  0.00    -0.213 NA
ATOM     20  C   UNL     1       7.831  36.587  -3.568  1.00  0.00     0.043 A 
ATOM     21  C   UNL     1       7.397  33.929  -4.160  1.00  0.00     0.136 A 
ATOM     22  C   UNL     1       8.041  37.962  -3.326  1.00  0.00     0.016 A 
ATOM     23  C   UNL     1       8.006  36.134  -4.883  1.00  0.00     0.078 A 
ATOM     24  C   UNL     1       7.787  34.800  -5.161  1.00  0.00     0.076 A 
ATOM     25  C   UNL     1       8.419  38.810  -4.361  1.00  0.00     0.026 A 
ATOM     26  N   UNL     1       8.374  36.953  -5.888  1.00  0.00    -0.251 NA
ATOM     27  C   UNL     1       8.573  38.271  -5.630  1.00  0.00     0.055 A 
BRANCH  21  28
ATOM     28  N   UNL     1       7.148  32.571  -4.349  1.00  0.00    -0.323 N 
ATOM     29  H   UNL     1       7.997  32.154  -4.709  1.00  0.00     0.170 HD
BRANCH  28  30
ATOM     30  C   UNL     1       6.060  31.801  -4.149  1.00  0.00     0.153 A 
ATOM     31  C   UNL     1       4.770  32.230  -4.553  1.00  0.00     0.071 A 
ATOM     32  N   UNL     1       5.997  30.595  -3.579  1.00  0.00    -0.158 NA
ATOM     33  C   UNL     1       3.908  31.217  -4.199  1.00  0.00     0.034 A 
ATOM     34  N   UNL     1       4.699  30.264  -3.624  1.00  0.00    -0.281 N 
ATOM     35  C   UNL     1       2.447  31.056  -4.347  1.00  0.00     0.066 C 
ATOM     36  H   UNL     1       4.422  29.367  -3.239  1.00  0.00     0.190 HD
ENDBRANCH  28  30
ENDBRANCH  21  28
BRANCH  27  37
ATOM     37  C   UNL     1       8.989  39.153  -6.794  1.00  0.00     0.140 C 
BRANCH  37  38
ATOM     38  N   UNL     1      10.364  38.901  -7.275  1.00  0.00    -0.293 NA
ATOM     39  C   UNL     1      11.082  40.169  -7.534  1.00  0.00     0.113 C 
ATOM     40  C   UNL     1      10.346  38.059  -8.497  1.00  0.00     0.113 C 
ATOM     41  C   UNL     1      11.109  40.570  -9.017  1.00  0.00     0.175 C 
ATOM     42  C   UNL     1      11.613  38.254  -9.344  1.00  0.00     0.175 C 
ATOM     43  O   UNL     1      11.747  39.591  -9.848  1.00  0.00    -0.379 OA
ENDBRANCH  37  38
ENDBRANCH  27  37
ENDBRANCH  16  18
ENDBRANCH   8  16
TORSDOF 10
ENDMDL
MODEL 3
REMARK VINA RESULT:      -6.4      3.482      6.015
REMARK SMILES C=CCOC(=O)N1[C@@H]2CCC[C@H]1C[C@@H](Nc1nc(Nc3cc(C)[nH]n3)cc3nc(CN4CCOCC4)ccc13)C2
REMARK SMILES IDX 7 1 8 2 9 3 10 4 11 5 12 6 13 7 14 8 40 9 5 10 6 11 4 12
REMARK SMILES IDX 3 13 2 14 1 15 15 16 16 18 17 19 39 20 18 21 38 22 27 23
REMARK SMILES IDX 26 24 37 25 28 26 29 27 19 28 20 30 21 31 25 32 22 33 24 34
REMARK SMILES IDX 23 35 30 37 31 38 32 39 36 40 33 41 35 42 34 43
REMARK H PARENT 15 17 19 29 24 36
ROOT
ATOM      1  N   UNL     1       8.439  35.680   2.121  1.00  0.00    -0.302 N 
ATOM      2  C   UNL     1       7.722  36.859   1.644  1.00  0.00     0.091 C 
ATOM      3  C   UNL     1       6.253  36.521   1.327  1.00  0.00     0.025 C 
ATOM      4  C   UNL     1       5.935  35.031   1.433  1.00  0.00     0.004 C 
ATOM      5  C   UNL     1       7.009  34.145   0.809  1.00  0.00     0.025 C 
ATOM      6  C   UNL     1       8.444  34.589   1.153  1.00  0.00     0.091 C 
ATOM      7  C   UNL     1       9.251  35.038  -0.079  1.00  0.00     0.050 C 
ATOM      8  C   UNL     1       8.800  36.393  -0.669  1.00  0.00     0.084 C 
ATOM      9  C   UNL     1       8.492  37.430   0.438  1.00  0.00     0.050 C 
ENDROOT
BRANCH   1  10
ATOM     10  C   UNL     1       9.428  35.733   3.091  1.00  0.00     0.410 C 
ATOM     11  O   UNL     1      10.479  36.349   2.961  1.00  0.00    -0.224 OA
BRANCH  10  12
ATOM     12  O   UNL     1       9.095  35.030   4.206  1.00  0.00    -0.445 OA
BRANCH  12  13
ATOM     13  C   UNL     1       7.960  35.504   4.940  1.00  0.00     0.262 C 
BRANCH  13  14
ATOM     14  C   UNL     1       8.344  36.762   5.661  1.00  0.00     0.006 C 
ATOM     15  C   UNL     1       7.846  37.977   5.395  1.00  0.00     0.007 C 
ENDBRANCH  13  14
ENDBRANCH  12  13
ENDBRANCH  10  12
ENDBRANCH   1  10
BRANCH   8  16
ATOM     16  N   UNL     1       7.628  36.248  -1.549  1.00  0.00    -0.367 N 
ATOM     17  H   UNL     1       7.425  37.110  -2.051  1.00  0.00     0.162 HD
BRANCH  16  18
ATOM     18  C   UNL     1       7.683  35.230  -2.531  1.00  0.00     0.138 A 
ATOM     19  N   UNL     1       8.868  34.934  -3.100  1.00  0.00    -0.213 NA
ATOM     20  C   UNL     1       6.497  34.556  -2.886  1.00  0.00     0.043 A 
ATOM     21  C   UNL     1       8.929  33.976  -4.048  1.00  0.00     0.136 A 
ATOM     22  C   UNL     1       5.232  34.794  -2.307  1.00  0.00     0.016 A 
ATOM     23  C   UNL     1       6.572  33.567  -3.877  1.00  0.00     0.078 A 
ATOM     24  C   UNL     1       7.797  33.291  -4.450  1.00  0.00     0.076 A 
ATOM     25  C   UNL     1       4.118  34.075  -2.727  1.00  0.00     0.026 A 
ATOM     26  N   UNL     1       5.494  32.870  -4.288  1.00  0.00    -0.251 NA
ATOM     27  C   UNL     1       4.287  33.119  -3.718  1.00  0.00     0.055 A 
BRANCH  21  28
ATOM     28  N   UNL     1      10.205  33.760  -4.564  1.00  0.00    -0.323 N 
ATOM     29  H   UNL     1      10.685  33.129  -3.934  1.00  0.00     0.170 HD
BRANCH  28  30
ATOM     30  C   UNL     1      10.840  34.214  -5.663  1.00  0.00     0.153 A 
ATOM     31  C   UNL     1      10.130  34.853  -6.712  1.00  0.00     0.071 A 
ATOM     32  N   UNL     1      12.142  34.150  -5.949  1.00  0.00    -0.158 NA
ATOM     33  C   UNL     1      11.072  35.180  -7.660  1.00  0.00     0.034 A 
ATOM     34  N   UNL     1      12.258  34.738  -7.148  1.00  0.00    -0.281 N 
ATOM     35  C   UNL     1      10.973  35.856  -8.970  1.00  0.00     0.066 C 
ATOM     36  H   UNL     1      13.183  34.803  -7.560  1.00  0.00     0.190 HD
ENDBRANCH  28  30
ENDBRANCH  21  28
BRANCH  27  37
ATOM     37  C   UNL     1       3.102  32.311  -4.216  1.00  0.00     0.140 C 
BRANCH  37  38
ATOM     38  N   UNL     1       3.059  32.153  -5.685  1.00  0.00    -0.293 NA
ATOM     39  C   UNL     1       2.507  33.362  -6.337  1.00  0.00     0.113 C 
ATOM     40  C   UNL     1       2.266  30.957  -6.061  1.00  0.00     0.113 C 
ATOM     41  C   UNL     1       1.025  33.232  -6.722  1.00  0.00     0.175 C 
ATOM     42  C   UNL     1       1.703  31.068  -7.486  1.00  0.00     0.175 C 
ATOM     43  O   UNL     1       0.778  32.155  -7.637  1.00  0.00    -0.379 OA
ENDBRANCH  37  38
ENDBRANCH  27  37
ENDBRANCH  16  18
ENDBRANCH   8  16
TORSDOF 10
ENDMDL
MODEL 4
REMARK VINA RESULT:      -6.3      1.548      2.185
REMARK SMILES C=CCOC(=O)N1[C@@H]2CCC[C@H]1C[C@@H](Nc1nc(Nc3cc(C)[nH]n3)cc3nc(CN4CCOCC4)ccc13)C2
REMARK SMILES IDX 7 1 8 2 9 3 10 4 11 5 12 6 13 7 14 8 40 9 5 10 6 11 4 12
REMARK SMILES IDX 3 13 2 14 1 15 15 16 16 18 17 19 39 20 18 21 38 22 27 23
REMARK SMILES IDX 26 24 37 25 28 26 29 27 19 28 20 30 21 31 25 32 22 33 24 34
REMARK SMILES IDX 23 35 30 37 31 38 32 39 36 40 33 41 35 42 34 43
REMARK H PARENT 15 17 19 29 24 36
ROOT
ATOM      1  N   UNL     1       8.448  35.497   2.765  1.00  0.00    -0.302 N 
ATOM      2  C   UNL     1       9.144  36.223   1.707  1.00  0.00     0.091 C 
ATOM      3  C   UNL     1       8.397  37.520   1.343  1.00  0.00     0.025 C 
ATOM      4  C   UNL     1       7.049  37.664   2.047  1.00  0.00     0.004 C 
ATOM      5  C   UNL     1       6.242  36.369   2.063  1.00  0.00     0.025 C 
ATOM      6  C   UNL     1       7.087  35.125   2.397  1.00  0.00     0.091 C 
ATOM      7  C   UNL     1       7.158  34.111   1.241  1.00  0.00     0.050 C 
ATOM      8  C   UNL     1       8.022  34.576   0.046  1.00  0.00     0.084 C 
ATOM      9  C   UNL     1       9.326  35.267   0.512  1.00  0.00     0.050 C 
ENDROOT
BRANCH   1  10
ATOM     10  C   UNL     1       9.105  34.782   3.755  1.00  0.00     0.410 C 
ATOM     11  O   UNL     1       8.680  34.648   4.896  1.00  0.00    -0.224 OA
BRANCH  10  12
ATOM     12  O   UNL     1      10.271  34.240   3.312  1.00  0.00    -0.445 OA
BRANCH  12  13
ATOM     13  C   UNL     1      10.847  33.217   4.131  1.00  0.00     0.262 C 
BRANCH  13  14
ATOM     14  C   UNL     1      10.920  31.948   3.336  1.00  0.00     0.006 C 
ATOM     15  C   UNL     1      10.733  30.720   3.838  1.00  0.00     0.007 C 
ENDBRANCH  13  14
ENDBRANCH  12  13
ENDBRANCH  10  12
ENDBRANCH   1  10
BRANCH   8  16
ATOM     16  N   UNL     1       7.280  35.477  -0.852  1.00  0.00    -0.367 N 
ATOM     17  H   UNL     1       7.589  36.443  -0.757  1.00  0.00     0.162 HD
BRANCH  16  18
ATOM     18  C   UNL     1       7.330  35.188  -2.237  1.00  0.00     0.138 A 
ATOM     19  N   UNL     1       7.125  33.922  -2.649  1.00  0.00    -0.213 NA
ATOM     20  C   UNL     1       7.593  36.235  -3.146  1.00  0.00     0.043 A 
ATOM     21  C   UNL     1       7.184  33.635  -3.966  1.00  0.00     0.136 A 
ATOM     22  C   UNL     1       7.784  37.586  -2.784  1.00  0.00     0.016 A 
ATOM     23  C   UNL     1       7.659  35.922  -4.511  1.00  0.00     0.078 A 
ATOM     24  C   UNL     1       7.455  34.615  -4.904  1.00  0.00     0.076 A 
ATOM     25  C   UNL     1       8.040  38.546  -3.757  1.00  0.00     0.026 A 
ATOM     26  N   UNL     1       7.909  36.850  -5.456  1.00  0.00    -0.251 NA
ATOM     27  C   UNL     1       8.092  38.143  -5.082  1.00  0.00     0.055 A 
BRANCH  21  28
ATOM     28  N   UNL     1       6.958  32.293  -4.271  1.00  0.00    -0.323 N 
ATOM     29  H   UNL     1       7.787  31.943  -4.734  1.00  0.00     0.170 HD
BRANCH  28  30
ATOM     30  C   UNL     1       5.912  31.469  -4.066  1.00  0.00     0.153 A 
ATOM     31  C   UNL     1       4.609  31.810  -4.510  1.00  0.00     0.071 A 
ATOM     32  N   UNL     1       5.904  30.281  -3.457  1.00  0.00    -0.158 NA
ATOM     33  C   UNL     1       3.798  30.762  -4.138  1.00  0.00     0.034 A 
ATOM     34  N   UNL     1       4.629  29.875  -3.515  1.00  0.00    -0.281 N 
ATOM     35  C   UNL     1       2.352  30.512  -4.310  1.00  0.00     0.066 C 
ATOM     36  H   UNL     1       4.395  28.977  -3.106  1.00  0.00     0.190 HD
ENDBRANCH  28  30
ENDBRANCH  21  28
BRANCH  27  37
ATOM     37  C   UNL     1       8.374  39.151  -6.182  1.00  0.00     0.140 C 
BRANCH  37  38
ATOM     38  N   UNL     1       9.793  39.212  -6.590  1.00  0.00    -0.293 NA
ATOM     39  C   UNL     1      10.238  40.612  -6.774  1.00  0.00     0.113 C 
ATOM     40  C   UNL     1      10.015  38.433  -7.833  1.00  0.00     0.113 C 
ATOM     41  C   UNL     1      10.254  41.066  -8.242  1.00  0.00     0.175 C 
ATOM     42  C   UNL     1      11.253  38.922  -8.601  1.00  0.00     0.175 C 
ATOM     43  O   UNL     1      11.126  40.275  -9.061  1.00  0.00    -0.379 OA
ENDBRANCH  37  38
ENDBRANCH  27  37
ENDBRANCH  16  18
ENDBRANCH   8  16
TORSDOF 10
ENDMDL
MODEL 5
REMARK VINA RESULT:      -6.3      3.734      6.368
REMARK SMILES C=CCOC(=O)N1[C@@H]2CCC[C@H]1C[C@@H](Nc1nc(Nc3cc(C)[nH]n3)cc3nc(CN4CCOCC4)ccc13)C2
REMARK SMILES IDX 7 1 8 2 9 3 10 4 11 5 12 6 13 7 14 8 40 9 5 10 6 11 4 12
REMARK SMILES IDX 3 13 2 14 1 15 15 16 16 18 17 19 39 20 18 21 38 22 27 23
REMARK SMILES IDX 26 24 37 25 28 26 29 27 19 28 20 30 21 31 25 32 22 33 24 34
REMARK SMILES IDX 23 35 30 37 31 38 32 39 36 40 33 41 35 42 34 43
REMARK H PARENT 15 17 19 29 24 36
ROOT
ATOM      1  N   UNL     1       8.685  35.074   1.933  1.00  0.00    -0.302 N 
ATOM      2  C   UNL     1       9.303  35.699   0.767  1.00  0.00     0.091 C 
ATOM      3  C   UNL     1       8.728  37.107   0.525  1.00  0.00     0.025 C 
ATOM      4  C   UNL     1       7.561  37.454   1.447  1.00  0.00     0.004 C 
ATOM      5  C   UNL     1       6.565  36.307   1.608  1.00  0.00     0.025 C 
ATOM      6  C   UNL     1       7.239  34.936   1.803  1.00  0.00     0.091 C 
ATOM      7  C   UNL     1       6.947  33.948   0.659  1.00  0.00     0.050 C 
ATOM      8  C   UNL     1       7.663  34.291  -0.668  1.00  0.00     0.084 C 
ATOM      9  C   UNL     1       9.122  34.750  -0.434  1.00  0.00     0.050 C 
ENDROOT
BRANCH   1  10
ATOM     10  C   UNL     1       9.373  34.241   2.803  1.00  0.00     0.410 C 
ATOM     11  O   UNL     1       9.366  33.018   2.724  1.00  0.00    -0.224 OA
BRANCH  10  12
ATOM     12  O   UNL     1      10.062  34.936   3.746  1.00  0.00    -0.445 OA
BRANCH  12  13
ATOM     13  C   UNL     1       9.484  36.176   4.169  1.00  0.00     0.262 C 
BRANCH  13  14
ATOM     14  C   UNL     1       8.636  35.924   5.380  1.00  0.00     0.006 C 
ATOM     15  C   UNL     1       7.386  36.378   5.545  1.00  0.00     0.007 C 
ENDBRANCH  13  14
ENDBRANCH  12  13
ENDBRANCH  10  12
ENDBRANCH   1  10
BRANCH   8  16
ATOM     16  N   UNL     1       6.939  35.319  -1.434  1.00  0.00    -0.367 N 
ATOM     17  H   UNL     1       7.355  36.241  -1.315  1.00  0.00     0.162 HD
BRANCH  16  18
ATOM     18  C   UNL     1       6.829  35.121  -2.832  1.00  0.00     0.138 A 
ATOM     19  N   UNL     1       7.876  35.430  -3.621  1.00  0.00    -0.213 NA
ATOM     20  C   UNL     1       5.626  34.606  -3.358  1.00  0.00     0.043 A 
ATOM     21  C   UNL     1       7.776  35.258  -4.956  1.00  0.00     0.136 A 
ATOM     22  C   UNL     1       4.505  34.232  -2.586  1.00  0.00     0.016 A 
ATOM     23  C   UNL     1       5.532  34.439  -4.747  1.00  0.00     0.078 A 
ATOM     24  C   UNL     1       6.616  34.773  -5.532  1.00  0.00     0.076 A 
ATOM     25  C   UNL     1       3.361  33.734  -3.200  1.00  0.00     0.026 A 
ATOM     26  N   UNL     1       4.423  33.958  -5.345  1.00  0.00    -0.251 NA
ATOM     27  C   UNL     1       3.357  33.608  -4.581  1.00  0.00     0.055 A 
BRANCH  21  28
ATOM     28  N   UNL     1       8.920  35.614  -5.667  1.00  0.00    -0.323 N 
ATOM     29  H   UNL     1       8.852  36.602  -5.879  1.00  0.00     0.170 HD
BRANCH  28  30
ATOM     30  C   UNL     1       9.999  34.918  -6.078  1.00  0.00     0.153 A 
ATOM     31  C   UNL     1      10.476  33.801  -5.346  1.00  0.00     0.071 A 
ATOM     32  N   UNL     1      10.758  35.133  -7.155  1.00  0.00    -0.158 NA
ATOM     33  C   UNL     1      11.573  33.339  -6.037  1.00  0.00     0.034 A 
ATOM     34  N   UNL     1      11.692  34.173  -7.112  1.00  0.00    -0.281 N 
ATOM     35  C   UNL     1      12.500  32.214  -5.796  1.00  0.00     0.066 C 
ATOM     36  H   UNL     1      12.385  34.147  -7.852  1.00  0.00     0.190 HD
ENDBRANCH  28  30
ENDBRANCH  21  28
BRANCH  27  37
ATOM     37  C   UNL     1       2.131  33.075  -5.300  1.00  0.00     0.140 C 
BRANCH  37  38
ATOM     38  N   UNL     1       2.418  31.960  -6.228  1.00  0.00    -0.293 NA
ATOM     39  C   UNL     1       1.908  32.250  -7.587  1.00  0.00     0.113 C 
ATOM     40  C   UNL     1       1.841  30.692  -5.719  1.00  0.00     0.113 C 
ATOM     41  C   UNL     1       0.561  31.576  -7.895  1.00  0.00     0.175 C 
ATOM     42  C   UNL     1       1.587  29.684  -6.851  1.00  0.00     0.175 C 
ATOM     43  O   UNL     1       0.618  30.147  -7.803  1.00  0.00    -0.379 OA
ENDBRANCH  37  38
ENDBRANCH  27  37
ENDBRANCH  16  18
ENDBRANCH   8  16
TORSDOF 10
ENDMDL
MODEL 6
REMARK VINA RESULT:      -6.1      7.524     12.937
REMARK SMILES C=CCOC(=O)N1[C@@H]2CCC[C@H]1C[C@@H](Nc1nc(Nc3cc(C)[nH]n3)cc3nc(CN4CCOCC4)ccc13)C2
REMARK SMILES IDX 7 1 8 2 9 3 10 4 11 5 12 6 13 7 14 8 40 9 5 10 6 11 4 12
REMARK SMILES IDX 3 13 2 14 1 15 15 16 16 18 17 19 39 20 18 21 38 22 27 23
REMARK SMILES IDX 26 24 37 25 28 26 29 27 19 28 20 30 21 31 25 32 22 33 24 34
REMARK SMILES IDX 23 35 30 37 31 38 32 39 36 40 33 41 35 42 34 43
REMARK H PARENT 15 17 19 29 24 36
ROOT
ATOM      1  N   UNL     1      11.845  33.960  11.026  1.00  0.00    -0.302 N 
ATOM      2  C   UNL     1      10.394  33.822  11.100  1.00  0.00     0.091 C 
ATOM      3  C   UNL     1       9.978  32.339  11.082  1.00  0.00     0.025 C 
ATOM      4  C   UNL     1      11.143  31.383  10.839  1.00  0.00     0.004 C 
ATOM      5  C   UNL     1      12.089  31.860   9.739  1.00  0.00     0.025 C 
ATOM      6  C   UNL     1      12.411  33.364   9.820  1.00  0.00     0.091 C 
ATOM      7  C   UNL     1      11.904  34.160   8.604  1.00  0.00     0.050 C 
ATOM      8  C   UNL     1      10.367  34.327   8.555  1.00  0.00     0.084 C 
ATOM      9  C   UNL     1       9.778  34.644   9.951  1.00  0.00     0.050 C 
ENDROOT
BRANCH   1  10
ATOM     10  C   UNL     1      12.550  34.954  11.689  1.00  0.00     0.410 C 
ATOM     11  O   UNL     1      12.661  36.101  11.275  1.00  0.00    -0.224 OA
BRANCH  10  12
ATOM     12  O   UNL     1      13.094  34.511  12.853  1.00  0.00    -0.445 OA
BRANCH  12  13
ATOM     13  C   UNL     1      14.523  34.540  12.938  1.00  0.00     0.262 C 
BRANCH  13  14
ATOM     14  C   UNL     1      15.067  33.277  12.340  1.00  0.00     0.006 C 
ATOM     15  C   UNL     1      14.791  32.043  12.781  1.00  0.00     0.007 C 
ENDBRANCH  13  14
ENDBRANCH  12  13
ENDBRANCH  10  12
ENDBRANCH   1  10
BRANCH   8  16
ATOM     16  N   UNL     1       9.702  33.139   7.996  1.00  0.00    -0.367 N 
ATOM     17  H   UNL     1       8.688  33.230   8.018  1.00  0.00     0.162 HD
BRANCH  16  18
ATOM     18  C   UNL     1      10.031  32.783   6.666  1.00  0.00     0.138 A 
ATOM     19  N   UNL     1      10.239  33.758   5.761  1.00  0.00    -0.213 NA
ATOM     20  C   UNL     1      10.133  31.417   6.328  1.00  0.00     0.043 A 
ATOM     21  C   UNL     1      10.539  33.429   4.487  1.00  0.00     0.136 A 
ATOM     22  C   UNL     1       9.960  30.349   7.234  1.00  0.00     0.016 A 
ATOM     23  C   UNL     1      10.438  31.088   5.000  1.00  0.00     0.078 A 
ATOM     24  C   UNL     1      10.636  32.107   4.091  1.00  0.00     0.076 A 
ATOM     25  C   UNL     1      10.080  29.032   6.802  1.00  0.00     0.026 A 
ATOM     26  N   UNL     1      10.553  29.813   4.578  1.00  0.00    -0.251 NA
ATOM     27  C   UNL     1      10.379  28.802   5.468  1.00  0.00     0.055 A 
BRANCH  21  28
ATOM     28  N   UNL     1      10.729  34.521   3.642  1.00  0.00    -0.323 N 
ATOM     29  H   UNL     1      11.640  34.418   3.213  1.00  0.00     0.170 HD
BRANCH  28  30
ATOM     30  C   UNL     1       9.965  35.587   3.334  1.00  0.00     0.153 A 
ATOM     31  C   UNL     1       9.475  35.787   2.018  1.00  0.00     0.071 A 
ATOM     32  N   UNL     1       9.562  36.573   4.139  1.00  0.00    -0.158 NA
ATOM     33  C   UNL     1       8.746  36.954   2.060  1.00  0.00     0.034 A 
ATOM     34  N   UNL     1       8.831  37.378   3.356  1.00  0.00    -0.281 N 
ATOM     35  C   UNL     1       7.991  37.693   1.028  1.00  0.00     0.066 C 
ATOM     36  H   UNL     1       8.418  38.204   3.774  1.00  0.00     0.190 HD
ENDBRANCH  28  30
ENDBRANCH  21  28
BRANCH  27  37
ATOM     37  C   UNL     1      10.515  27.384   4.944  1.00  0.00     0.140 C 
BRANCH  37  38
ATOM     38  N   UNL     1       9.786  26.377   5.744  1.00  0.00    -0.293 NA
ATOM     39  C   UNL     1      10.698  25.320   6.237  1.00  0.00     0.113 C 
ATOM     40  C   UNL     1       8.682  25.779   4.954  1.00  0.00     0.113 C 
ATOM     41  C   UNL     1      10.661  24.034   5.396  1.00  0.00     0.175 C 
ATOM     42  C   UNL     1       8.296  24.385   5.474  1.00  0.00     0.175 C 
ATOM     43  O   UNL     1       9.361  23.431   5.357  1.00  0.00    -0.379 OA
ENDBRANCH  37  38
ENDBRANCH  27  37
ENDBRANCH  16  18
ENDBRANCH   8  16
TORSDOF 10
ENDMDL
MODEL 7
REMARK VINA RESULT:      -6.1      1.589      2.468
REMARK SMILES C=CCOC(=O)N1[C@@H]2CCC[C@H]1C[C@@H](Nc1nc(Nc3cc(C)[nH]n3)cc3nc(CN4CCOCC4)ccc13)C2
REMARK SMILES IDX 7 1 8 2 9 3 10 4 11 5 12 6 13 7 14 8 40 9 5 10 6 11 4 12
REMARK SMILES IDX 3 13 2 14 1 15 15 16 16 18 17 19 39 20 18 21 38 22 27 23
REMARK SMILES IDX 26 24 37 25 28 26 29 27 19 28 20 30 21 31 25 32 22 33 24 34
REMARK SMILES IDX 23 35 30 37 31 38 32 39 36 40 33 41 35 42 34 43
REMARK H PARENT 15 17 19 29 24 36
ROOT
ATOM      1  N   UNL     1       6.818  34.476   2.170  1.00  0.00    -0.302 N 
ATOM      2  C   UNL     1       7.714  34.303   1.030  1.00  0.00     0.091 C 
ATOM      3  C   UNL     1       8.572  35.564   0.806  1.00  0.00     0.025 C 
ATOM      4  C   UNL     1       8.184  36.732   1.711  1.00  0.00     0.004 C 
ATOM      5  C   UNL     1       6.674  36.922   1.827  1.00  0.00     0.025 C 
ATOM      6  C   UNL     1       5.903  35.600   2.008  1.00  0.00     0.091 C 
ATOM      7  C   UNL     1       4.953  35.286   0.837  1.00  0.00     0.050 C 
ATOM      8  C   UNL     1       5.674  34.876  -0.467  1.00  0.00     0.084 C 
ATOM      9  C   UNL     1       6.860  33.920  -0.194  1.00  0.00     0.050 C 
ENDROOT
BRANCH   1  10
ATOM     10  C   UNL     1       6.483  33.445   3.036  1.00  0.00     0.410 C 
ATOM     11  O   UNL     1       5.350  33.250   3.458  1.00  0.00    -0.224 OA
BRANCH  10  12
ATOM     12  O   UNL     1       7.555  32.673   3.356  1.00  0.00    -0.445 OA
BRANCH  12  13
ATOM     13  C   UNL     1       8.263  33.031   4.548  1.00  0.00     0.262 C 
BRANCH  13  14
ATOM     14  C   UNL     1       9.602  33.586   4.165  1.00  0.00     0.006 C 
ATOM     15  C   UNL     1      10.389  33.085   3.203  1.00  0.00     0.007 C 
ENDBRANCH  13  14
ENDBRANCH  12  13
ENDBRANCH  10  12
ENDBRANCH   1  10
BRANCH   8  16
ATOM     16  N   UNL     1       6.148  36.045  -1.227  1.00  0.00    -0.367 N 
ATOM     17  H   UNL     1       7.029  36.400  -0.860  1.00  0.00     0.162 HD
BRANCH  16  18
ATOM     18  C   UNL     1       6.348  35.871  -2.617  1.00  0.00     0.138 A 
ATOM     19  N   UNL     1       5.839  34.778  -3.219  1.00  0.00    -0.213 NA
ATOM     20  C   UNL     1       7.071  36.847  -3.333  1.00  0.00     0.043 A 
ATOM     21  C   UNL     1       6.037  34.596  -4.542  1.00  0.00     0.136 A 
ATOM     22  C   UNL     1       7.600  38.029  -2.771  1.00  0.00     0.016 A 
ATOM     23  C   UNL     1       7.275  36.643  -4.705  1.00  0.00     0.078 A 
ATOM     24  C   UNL     1       6.752  35.509  -5.293  1.00  0.00     0.076 A 
ATOM     25  C   UNL     1       8.303  38.932  -3.562  1.00  0.00     0.026 A 
ATOM     26  N   UNL     1       7.957  37.515  -5.474  1.00  0.00    -0.251 NA
ATOM     27  C   UNL     1       8.459  38.644  -4.909  1.00  0.00     0.055 A 
BRANCH  21  28
ATOM     28  N   UNL     1       5.468  33.430  -5.051  1.00  0.00    -0.323 N 
ATOM     29  H   UNL     1       5.309  33.576  -6.040  1.00  0.00     0.170 HD
BRANCH  28  30
ATOM     30  C   UNL     1       5.129  32.252  -4.489  1.00  0.00     0.153 A 
ATOM     31  C   UNL     1       6.096  31.439  -3.844  1.00  0.00     0.071 A 
ATOM     32  N   UNL     1       3.925  31.678  -4.440  1.00  0.00    -0.158 NA
ATOM     33  C   UNL     1       5.417  30.330  -3.395  1.00  0.00     0.034 A 
ATOM     34  N   UNL     1       4.121  30.530  -3.777  1.00  0.00    -0.281 N 
ATOM     35  C   UNL     1       5.852  29.129  -2.654  1.00  0.00     0.066 C 
ATOM     36  H   UNL     1       3.320  29.926  -3.621  1.00  0.00     0.190 HD
ENDBRANCH  28  30
ENDBRANCH  21  28
BRANCH  27  37
ATOM     37  C   UNL     1       9.223  39.594  -5.815  1.00  0.00     0.140 C 
BRANCH  37  38
ATOM     38  N   UNL     1       8.572  39.829  -7.122  1.00  0.00    -0.293 NA
ATOM     39  C   UNL     1       9.561  39.816  -8.223  1.00  0.00     0.113 C 
ATOM     40  C   UNL     1       7.826  41.112  -7.112  1.00  0.00     0.113 C 
ATOM     41  C   UNL     1       9.990  41.219  -8.681  1.00  0.00     0.175 C 
ATOM     42  C   UNL     1       7.647  41.679  -8.529  1.00  0.00     0.175 C 
ATOM     43  O   UNL     1       8.894  42.009  -9.159  1.00  0.00    -0.379 OA
ENDBRANCH  37  38
ENDBRANCH  27  37
ENDBRANCH  16  18
ENDBRANCH   8  16
TORSDOF 10
ENDMDL
MODEL 8
REMARK VINA RESULT:      -6.0      4.091      9.358
REMARK SMILES C=CCOC(=O)N1[C@@H]2CCC[C@H]1C[C@@H](Nc1nc(Nc3cc(C)[nH]n3)cc3nc(CN4CCOCC4)ccc13)C2
REMARK SMILES IDX 7 1 8 2 9 3 10 4 11 5 12 6 13 7 14 8 40 9 5 10 6 11 4 12
REMARK SMILES IDX 3 13 2 14 1 15 15 16 16 18 17 19 39 20 18 21 38 22 27 23
REMARK SMILES IDX 26 24 37 25 28 26 29 27 19 28 20 30 21 31 25 32 22 33 24 34
REMARK SMILES IDX 23 35 30 37 31 38 32 39 36 40 33 41 35 42 34 43
REMARK H PARENT 15 17 19 29 24 36
ROOT
ATOM      1  N   UNL     1       8.075  35.503  -3.419  1.00  0.00    -0.302 N 
ATOM      2  C   UNL     1       8.412  34.469  -2.445  1.00  0.00     0.091 C 
ATOM      3  C   UNL     1       7.142  33.784  -1.905  1.00  0.00     0.025 C 
ATOM      4  C   UNL     1       5.848  34.436  -2.386  1.00  0.00     0.004 C 
ATOM      5  C   UNL     1       5.895  35.961  -2.343  1.00  0.00     0.025 C 
ATOM      6  C   UNL     1       7.220  36.547  -2.865  1.00  0.00     0.091 C 
ATOM      7  C   UNL     1       8.017  37.304  -1.787  1.00  0.00     0.050 C 
ATOM      8  C   UNL     1       8.656  36.389  -0.717  1.00  0.00     0.084 C 
ATOM      9  C   UNL     1       9.274  35.116  -1.342  1.00  0.00     0.050 C 
ENDROOT
BRANCH   1  10
ATOM     10  C   UNL     1       8.853  35.780  -4.533  1.00  0.00     0.410 C 
ATOM     11  O   UNL     1       8.669  36.739  -5.272  1.00  0.00    -0.224 OA
BRANCH  10  12
ATOM     12  O   UNL     1       9.848  34.870  -4.706  1.00  0.00    -0.445 OA
BRANCH  12  13
ATOM     13  C   UNL     1       9.763  34.050  -5.876  1.00  0.00     0.262 C 
BRANCH  13  14
ATOM     14  C   UNL     1      11.139  33.881  -6.447  1.00  0.00     0.006 C 
ATOM     15  C   UNL     1      11.905  32.793  -6.286  1.00  0.00     0.007 C 
ENDBRANCH  13  14
ENDBRANCH  12  13
ENDBRANCH  10  12
ENDBRANCH   1  10
BRANCH   8  16
ATOM     16  N   UNL     1       7.692  36.008   0.329  1.00  0.00    -0.367 N 
ATOM     17  H   UNL     1       7.435  35.025   0.264  1.00  0.00     0.162 HD
BRANCH  16  18
ATOM     18  C   UNL     1       8.085  36.219   1.673  1.00  0.00     0.138 A 
ATOM     19  N   UNL     1       8.918  35.336   2.257  1.00  0.00    -0.213 NA
ATOM     20  C   UNL     1       7.592  37.347   2.361  1.00  0.00     0.043 A 
ATOM     21  C   UNL     1       9.287  35.520   3.542  1.00  0.00     0.136 A 
ATOM     22  C   UNL     1       6.744  38.326   1.800  1.00  0.00     0.016 A 
ATOM     23  C   UNL     1       7.977  37.523   3.698  1.00  0.00     0.078 A 
ATOM     24  C   UNL     1       8.823  36.598   4.274  1.00  0.00     0.076 A 
ATOM     25  C   UNL     1       6.310  39.404   2.563  1.00  0.00     0.026 A 
ATOM     26  N   UNL     1       7.556  38.566   4.442  1.00  0.00    -0.251 NA
ATOM     27  C   UNL     1       6.738  39.493   3.880  1.00  0.00     0.055 A 
BRANCH  21  28
ATOM     28  N   UNL     1      10.148  34.542   4.037  1.00  0.00    -0.323 N 
ATOM     29  H   UNL     1      11.067  34.959   4.117  1.00  0.00     0.170 HD
BRANCH  28  30
ATOM     30  C   UNL     1       9.967  33.255   4.393  1.00  0.00     0.153 A 
ATOM     31  C   UNL     1      10.130  32.833   5.738  1.00  0.00     0.071 A 
ATOM     32  N   UNL     1       9.633  32.223   3.615  1.00  0.00    -0.158 NA
ATOM     33  C   UNL     1       9.876  31.481   5.742  1.00  0.00     0.034 A 
ATOM     34  N   UNL     1       9.580  31.172   4.445  1.00  0.00    -0.281 N 
ATOM     35  C   UNL     1       9.878  30.471   6.820  1.00  0.00     0.066 C 
ATOM     36  H   UNL     1       9.336  30.268   4.055  1.00  0.00     0.190 HD
ENDBRANCH  28  30
ENDBRANCH  21  28
BRANCH  27  37
ATOM     37  C   UNL     1       6.289  40.647   4.757  1.00  0.00     0.140 C 
BRANCH  37  38
ATOM     38  N   UNL     1       7.401  41.389   5.388  1.00  0.00    -0.293 NA
ATOM     39  C   UNL     1       7.072  41.767   6.781  1.00  0.00     0.113 C 
ATOM     40  C   UNL     1       7.745  42.594   4.594  1.00  0.00     0.113 C 
ATOM     41  C   UNL     1       6.601  43.223   6.929  1.00  0.00     0.175 C 
ATOM     42  C   UNL     1       8.430  43.669   5.452  1.00  0.00     0.175 C 
ATOM     43  O   UNL     1       7.583  44.173   6.495  1.00  0.00    -0.379 OA
ENDBRANCH  37  38
ENDBRANCH  27  37
ENDBRANCH  16  18
ENDBRANCH   8  16
TORSDOF 10
ENDMDL
MODEL 9
REMARK VINA RESULT:      -5.9      5.362     11.890
REMARK SMILES C=CCOC(=O)N1[C@@H]2CCC[C@H]1C[C@@H](Nc1nc(Nc3cc(C)[nH]n3)cc3nc(CN4CCOCC4)ccc13)C2
REMARK SMILES IDX 7 1 8 2 9 3 10 4 11 5 12 6 13 7 14 8 40 9 5 10 6 11 4 12
REMARK SMILES IDX 3 13 2 14 1 15 15 16 16 18 17 19 39 20 18 21 38 22 27 23
REMARK SMILES IDX 26 24 37 25 28 26 29 27 19 28 20 30 21 31 25 32 22 33 24 34
REMARK SMILES IDX 23 35 30 37 31 38 32 39 36 40 33 41 35 42 34 43
REMARK H PARENT 15 17 19 29 24 36
ROOT
ATOM      1  N   UNL     1       8.272  36.054   2.351  1.00  0.00    -0.302 N 
ATOM      2  C   UNL     1       7.126  35.290   2.834  1.00  0.00     0.091 C 
ATOM      3  C   UNL     1       6.713  35.746   4.247  1.00  0.00     0.025 C 
ATOM      4  C   UNL     1       7.674  36.761   4.863  1.00  0.00     0.004 C 
ATOM      5  C   UNL     1       9.142  36.406   4.641  1.00  0.00     0.025 C 
ATOM      6  C   UNL     1       9.445  35.923   3.210  1.00  0.00     0.091 C 
ATOM      7  C   UNL     1       9.927  34.462   3.152  1.00  0.00     0.050 C 
ATOM      8  C   UNL     1       8.821  33.421   3.443  1.00  0.00     0.084 C 
ATOM      9  C   UNL     1       7.485  33.793   2.756  1.00  0.00     0.050 C 
ENDROOT
BRANCH   1  10
ATOM     10  C   UNL     1       8.439  36.417   1.023  1.00  0.00     0.410 C 
ATOM     11  O   UNL     1       9.514  36.746   0.536  1.00  0.00    -0.224 OA
BRANCH  10  12
ATOM     12  O   UNL     1       7.275  36.359   0.323  1.00  0.00    -0.445 OA
BRANCH  12  13
ATOM     13  C   UNL     1       7.394  36.208  -1.096  1.00  0.00     0.262 C 
BRANCH  13  14
ATOM     14  C   UNL     1       7.681  34.769  -1.405  1.00  0.00     0.006 C 
ATOM     15  C   UNL     1       6.898  33.741  -1.053  1.00  0.00     0.007 C 
ENDBRANCH  13  14
ENDBRANCH  12  13
ENDBRANCH  10  12
ENDBRANCH   1  10
BRANCH   8  16
ATOM     16  N   UNL     1       8.600  33.241   4.887  1.00  0.00    -0.367 N 
ATOM     17  H   UNL     1       7.725  32.757   5.077  1.00  0.00     0.162 HD
BRANCH  16  18
ATOM     18  C   UNL     1       9.596  32.540   5.608  1.00  0.00     0.138 A 
ATOM     19  N   UNL     1       9.931  31.295   5.218  1.00  0.00    -0.213 NA
ATOM     20  C   UNL     1      10.210  33.166   6.713  1.00  0.00     0.043 A 
ATOM     21  C   UNL     1      10.869  30.613   5.907  1.00  0.00     0.136 A 
ATOM     22  C   UNL     1       9.930  34.478   7.153  1.00  0.00     0.016 A 
ATOM     23  C   UNL     1      11.179  32.444   7.425  1.00  0.00     0.078 A 
ATOM     24  C   UNL     1      11.495  31.166   7.009  1.00  0.00     0.076 A 
ATOM     25  C   UNL     1      10.590  35.006   8.257  1.00  0.00     0.026 A 
ATOM     26  N   UNL     1      11.818  32.953   8.497  1.00  0.00    -0.251 NA
ATOM     27  C   UNL     1      11.529  34.216   8.903  1.00  0.00     0.055 A 
BRANCH  21  28
ATOM     28  N   UNL     1      11.129  29.336   5.413  1.00  0.00    -0.323 N 
ATOM     29  H   UNL     1      12.130  29.260   5.279  1.00  0.00     0.170 HD
BRANCH  28  30
ATOM     30  C   UNL     1      10.336  28.288   5.113  1.00  0.00     0.153 A 
ATOM     31  C   UNL     1       9.862  27.412   6.123  1.00  0.00     0.071 A 
ATOM     32  N   UNL     1       9.887  27.909   3.915  1.00  0.00    -0.158 NA
ATOM     33  C   UNL     1       9.095  26.471   5.476  1.00  0.00     0.034 A 
ATOM     34  N   UNL     1       9.143  26.821   4.156  1.00  0.00    -0.281 N 
ATOM     35  C   UNL     1       8.333  25.302   5.961  1.00  0.00     0.066 C 
ATOM     36  H   UNL     1       8.696  26.364   3.369  1.00  0.00     0.190 HD
ENDBRANCH  28  30
ENDBRANCH  21  28
BRANCH  27  37
ATOM     37  C   UNL     1      12.273  34.743  10.117  1.00  0.00     0.140 C 
BRANCH  37  38
ATOM     38  N   UNL     1      12.117  36.198  10.330  1.00  0.00    -0.293 NA
ATOM     39  C   UNL     1      13.361  36.926   9.995  1.00  0.00     0.113 C 
ATOM     40  C   UNL     1      11.714  36.481  11.730  1.00  0.00     0.113 C 
ATOM     41  C   UNL     1      14.215  37.284  11.223  1.00  0.00     0.175 C 
ATOM     42  C   UNL     1      12.103  37.904  12.160  1.00  0.00     0.175 C 
ATOM     43  O   UNL     1      13.522  38.119  12.159  1.00  0.00    -0.379 OA
ENDBRANCH  37  38
ENDBRANCH  27  37
ENDBRANCH  16  18
ENDBRANCH   8  16
TORSDOF 10
ENDMDL
