MODEL 1
REMARK VINA RESULT:      -8.3      0.000      0.000
REMARK SMILES C=CC(=O)N1CC[C@@H](Oc2cc(-c3ccc(O)cc3)cn3cncc23)C[C@H]1C
REMARK SMILES IDX 10 1 11 2 12 3 20 4 21 5 22 6 23 7 24 8 25 9 9 10 8 11 5 12
REMARK SMILES IDX 6 13 27 14 7 15 26 16 28 17 3 18 4 19 2 20 1 21 13 22 14 23
REMARK SMILES IDX 19 24 15 25 18 26 16 27 17 28
REMARK H PARENT 17 29
ROOT
ATOM      1  C   UNL     1      13.657  11.968   3.975  1.00  0.00     0.146 A 
ATOM      2  C   UNL     1      13.044  13.100   3.579  1.00  0.00     0.059 A 
ATOM      3  C   UNL     1      12.156  13.135   2.413  1.00  0.00     0.002 A 
ATOM      4  C   UNL     1      11.935  11.978   1.755  1.00  0.00     0.101 A 
ATOM      5  N   UNL     1      12.548  10.809   2.197  1.00  0.00    -0.302 N 
ATOM      6  C   UNL     1      12.465   9.531   1.702  1.00  0.00     0.204 A 
ATOM      7  N   UNL     1      13.184   8.680   2.401  1.00  0.00    -0.244 NA
ATOM      8  C   UNL     1      13.759   9.429   3.398  1.00  0.00     0.143 A 
ATOM      9  C   UNL     1      13.399  10.753   3.289  1.00  0.00     0.107 A 
ENDROOT
BRANCH   1  10
ATOM     10  O   UNL     1      14.450  11.908   5.095  1.00  0.00    -0.488 OA
BRANCH  10  11
ATOM     11  C   UNL     1      15.453  12.936   5.124  1.00  0.00     0.177 C 
ATOM     12  N   UNL     1      17.996  14.074   5.291  1.00  0.00    -0.336 N 
ATOM     13  C   UNL     1      17.908  12.891   4.439  1.00  0.00     0.124 C 
ATOM     14  C   UNL     1      17.236  14.006   6.553  1.00  0.00     0.086 C 
ATOM     15  C   UNL     1      16.466  12.642   4.007  1.00  0.00     0.067 C 
ATOM     16  C   UNL     1      16.130  12.938   6.495  1.00  0.00     0.070 C 
ATOM     17  C   UNL     1      18.157  13.726   7.743  1.00  0.00     0.031 C 
BRANCH  12  18
ATOM     18  C   UNL     1      18.781  15.136   4.853  1.00  0.00     0.246 C 
ATOM     19  O   UNL     1      20.002  15.050   4.732  1.00  0.00    -0.270 OA
BRANCH  18  20
ATOM     20  C   UNL     1      18.096  16.414   4.507  1.00  0.00     0.063 C 
ATOM     21  C   UNL     1      16.830  16.408   4.066  1.00  0.00     0.014 C 
ENDBRANCH  18  20
ENDBRANCH  12  18
ENDBRANCH  10  11
ENDBRANCH   1  10
BRANCH   3  22
ATOM     22  C   UNL     1      11.505  14.366   1.937  1.00  0.00    -0.017 A 
ATOM     23  C   UNL     1      11.226  14.546   0.577  1.00  0.00     0.012 A 
ATOM     24  C   UNL     1      11.146  15.368   2.851  1.00  0.00     0.012 A 
ATOM     25  C   UNL     1      10.602  15.714   0.135  1.00  0.00     0.047 A 
ATOM     26  C   UNL     1      10.522  16.537   2.409  1.00  0.00     0.047 A 
ATOM     27  C   UNL     1      10.257  16.699   1.053  1.00  0.00     0.115 A 
BRANCH  27  28
ATOM     28  O   UNL     1       9.650  17.823   0.578  1.00  0.00    -0.508 OA
ATOM     29  H   UNL     1       8.697  17.763   0.750  1.00  0.00     0.293 HD
ENDBRANCH  27  28
ENDBRANCH   3  22
TORSDOF 6
ENDMDL
MODEL 2
REMARK VINA RESULT:      -7.8      3.071      4.453
REMARK SMILES C=CC(=O)N1CC[C@@H](Oc2cc(-c3ccc(O)cc3)cn3cncc23)C[C@H]1C
REMARK SMILES IDX 10 1 11 2 12 3 20 4 21 5 22 6 23 7 24 8 25 9 9 10 8 11 5 12
REMARK SMILES IDX 6 13 27 14 7 15 26 16 28 17 3 18 4 19 2 20 1 21 13 22 14 23
REMARK SMILES IDX 19 24 15 25 18 26 16 27 17 28
REMARK H PARENT 17 29
ROOT
ATOM      1  C   UNL     1      17.047  10.250   5.661  1.00  0.00     0.146 A 
ATOM      2  C   UNL     1      15.968  10.628   4.950  1.00  0.00     0.059 A 
ATOM      3  C   UNL     1      15.160   9.666   4.194  1.00  0.00     0.002 A 
ATOM      4  C   UNL     1      15.508   8.364   4.258  1.00  0.00     0.101 A 
ATOM      5  N   UNL     1      16.606   7.983   5.026  1.00  0.00    -0.302 N 
ATOM      6  C   UNL     1      17.134   6.736   5.247  1.00  0.00     0.204 A 
ATOM      7  N   UNL     1      18.175   6.773   6.050  1.00  0.00    -0.244 NA
ATOM      8  C   UNL     1      18.335   8.099   6.371  1.00  0.00     0.143 A 
ATOM      9  C   UNL     1      17.390   8.875   5.739  1.00  0.00     0.107 A 
ENDROOT
BRANCH   1  10
ATOM     10  O   UNL     1      17.783  11.131   6.415  1.00  0.00    -0.488 OA
BRANCH  10  11
ATOM     11  C   UNL     1      17.662  12.490   5.962  1.00  0.00     0.177 C 
ATOM     12  N   UNL     1      18.358  15.163   5.565  1.00  0.00    -0.336 N 
ATOM     13  C   UNL     1      19.441  14.208   5.346  1.00  0.00     0.124 C 
ATOM     14  C   UNL     1      17.493  14.887   6.729  1.00  0.00     0.086 C 
ATOM     15  C   UNL     1      18.886  12.810   5.091  1.00  0.00     0.067 C 
ATOM     16  C   UNL     1      17.591  13.418   7.175  1.00  0.00     0.070 C 
ATOM     17  C   UNL     1      17.835  15.804   7.906  1.00  0.00     0.031 C 
BRANCH  12  18
ATOM     18  C   UNL     1      18.244  16.233   4.684  1.00  0.00     0.246 C 
ATOM     19  O   UNL     1      19.126  17.081   4.556  1.00  0.00    -0.270 OA
BRANCH  18  20
ATOM     20  C   UNL     1      17.004  16.331   3.862  1.00  0.00     0.063 C 
ATOM     21  C   UNL     1      16.475  15.236   3.299  1.00  0.00     0.014 C 
ENDBRANCH  18  20
ENDBRANCH  12  18
ENDBRANCH  10  11
ENDBRANCH   1  10
BRANCH   3  22
ATOM     22  C   UNL     1      13.999  10.058   3.379  1.00  0.00    -0.017 A 
ATOM     23  C   UNL     1      13.382   9.135   2.525  1.00  0.00     0.012 A 
ATOM     24  C   UNL     1      13.493  11.364   3.461  1.00  0.00     0.012 A 
ATOM     25  C   UNL     1      12.278   9.515   1.760  1.00  0.00     0.047 A 
ATOM     26  C   UNL     1      12.388  11.743   2.695  1.00  0.00     0.047 A 
ATOM     27  C   UNL     1      11.791  10.813   1.850  1.00  0.00     0.115 A 
BRANCH  27  28
ATOM     28  O   UNL     1      10.712  11.140   1.085  1.00  0.00    -0.508 OA
ATOM     29  H   UNL     1      11.023  11.537   0.255  1.00  0.00     0.293 HD
ENDBRANCH  27  28
ENDBRANCH   3  22
TORSDOF 6
ENDMDL
MODEL 3
REMARK VINA RESULT:      -7.8      1.797      2.036
REMARK SMILES C=CC(=O)N1CC[C@@H](Oc2cc(-c3ccc(O)cc3)cn3cncc23)C[C@H]1C
REMARK SMILES IDX 10 1 11 2 12 3 20 4 21 5 22 6 23 7 24 8 25 9 9 10 8 11 5 12
REMARK SMILES IDX 6 13 27 14 7 15 26 16 28 17 3 18 4 19 2 20 1 21 13 22 14 23
REMARK SMILES IDX 19 24 15 25 18 26 16 27 17 28
REMARK H PARENT 17 29
ROOT
ATOM      1  C   UNL     1      14.475  13.013   2.841  1.00  0.00     0.146 A 
ATOM      2  C   UNL     1      13.708  14.021   2.382  1.00  0.00     0.059 A 
ATOM      3  C   UNL     1      12.306  13.818   2.002  1.00  0.00     0.002 A 
ATOM      4  C   UNL     1      11.783  12.584   2.160  1.00  0.00     0.101 A 
ATOM      5  N   UNL     1      12.579  11.561   2.669  1.00  0.00    -0.302 N 
ATOM      6  C   UNL     1      12.266  10.249   2.924  1.00  0.00     0.204 A 
ATOM      7  N   UNL     1      13.286   9.583   3.421  1.00  0.00    -0.244 NA
ATOM      8  C   UNL     1      14.309  10.497   3.498  1.00  0.00     0.143 A 
ATOM      9  C   UNL     1      13.908  11.725   3.024  1.00  0.00     0.107 A 
ENDROOT
BRANCH   1  10
ATOM     10  O   UNL     1      15.774  13.198   3.249  1.00  0.00    -0.488 OA
BRANCH  10  11
ATOM     11  C   UNL     1      15.872  13.901   4.498  1.00  0.00     0.177 C 
ATOM     12  N   UNL     1      17.037  15.386   6.554  1.00  0.00    -0.336 N 
ATOM     13  C   UNL     1      17.361  15.845   5.206  1.00  0.00     0.124 C 
ATOM     14  C   UNL     1      17.025  13.923   6.741  1.00  0.00     0.086 C 
ATOM     15  C   UNL     1      16.335  15.335   4.199  1.00  0.00     0.067 C 
ATOM     16  C   UNL     1      16.869  13.178   5.404  1.00  0.00     0.070 C 
ATOM     17  C   UNL     1      18.294  13.442   7.450  1.00  0.00     0.031 C 
BRANCH  12  18
ATOM     18  C   UNL     1      16.783  16.348   7.526  1.00  0.00     0.246 C 
ATOM     19  O   UNL     1      17.639  16.720   8.327  1.00  0.00    -0.270 OA
BRANCH  18  20
ATOM     20  C   UNL     1      15.420  16.950   7.573  1.00  0.00     0.063 C 
ATOM     21  C   UNL     1      15.221  18.211   7.164  1.00  0.00     0.014 C 
ENDBRANCH  18  20
ENDBRANCH  12  18
ENDBRANCH  10  11
ENDBRANCH   1  10
BRANCH   3  22
ATOM     22  C   UNL     1      11.459  14.893   1.462  1.00  0.00    -0.017 A 
ATOM     23  C   UNL     1      11.106  14.910   0.107  1.00  0.00     0.012 A 
ATOM     24  C   UNL     1      10.985  15.905   2.309  1.00  0.00     0.012 A 
ATOM     25  C   UNL     1      10.296  15.931  -0.395  1.00  0.00     0.047 A 
ATOM     26  C   UNL     1      10.175  16.926   1.806  1.00  0.00     0.047 A 
ATOM     27  C   UNL     1       9.838  16.929   0.456  1.00  0.00     0.115 A 
BRANCH  27  28
ATOM     28  O   UNL     1       9.051  17.905  -0.077  1.00  0.00    -0.508 OA
ATOM     29  H   UNL     1       9.243  18.744   0.373  1.00  0.00     0.293 HD
ENDBRANCH  27  28
ENDBRANCH   3  22
TORSDOF 6
ENDMDL
MODEL 4
REMARK VINA RESULT:      -7.7      3.005      6.713
REMARK SMILES C=CC(=O)N1CC[C@@H](Oc2cc(-c3ccc(O)cc3)cn3cncc23)C[C@H]1C
REMARK SMILES IDX 10 1 11 2 12 3 20 4 21 5 22 6 23 7 24 8 25 9 9 10 8 11 5 12
REMARK SMILES IDX 6 13 27 14 7 15 26 16 28 17 3 18 4 19 2 20 1 21 13 22 14 23
REMARK SMILES IDX 19 24 15 25 18 26 16 27 17 28
REMARK H PARENT 17 29
ROOT
ATOM      1  C   UNL     1      14.108  11.436   4.586  1.00  0.00     0.146 A 
ATOM      2  C   UNL     1      15.070  10.657   5.117  1.00  0.00     0.059 A 
ATOM      3  C   UNL     1      15.297   9.283   4.659  1.00  0.00     0.002 A 
ATOM      4  C   UNL     1      14.530   8.821   3.650  1.00  0.00     0.101 A 
ATOM      5  N   UNL     1      13.563   9.650   3.087  1.00  0.00    -0.302 N 
ATOM      6  C   UNL     1      12.686   9.407   2.060  1.00  0.00     0.204 A 
ATOM      7  N   UNL     1      11.927  10.448   1.797  1.00  0.00    -0.244 NA
ATOM      8  C   UNL     1      12.324  11.416   2.687  1.00  0.00     0.143 A 
ATOM      9  C   UNL     1      13.323  10.947   3.510  1.00  0.00     0.107 A 
ENDROOT
BRANCH   1  10
ATOM     10  O   UNL     1      13.917  12.742   4.969  1.00  0.00    -0.488 OA
BRANCH  10  11
ATOM     11  C   UNL     1      15.106  13.540   4.841  1.00  0.00     0.177 C 
ATOM     12  N   UNL     1      16.671  15.809   4.408  1.00  0.00    -0.336 N 
ATOM     13  C   UNL     1      15.497  16.026   5.249  1.00  0.00     0.124 C 
ATOM     14  C   UNL     1      16.462  14.936   3.237  1.00  0.00     0.086 C 
ATOM     15  C   UNL     1      15.001  14.707   5.835  1.00  0.00     0.067 C 
ATOM     16  C   UNL     1      15.217  14.049   3.404  1.00  0.00     0.070 C 
ATOM     17  C   UNL     1      16.340  15.753   1.948  1.00  0.00     0.031 C 
BRANCH  12  18
ATOM     18  C   UNL     1      17.857  16.440   4.770  1.00  0.00     0.246 C 
ATOM     19  O   UNL     1      17.937  17.658   4.926  1.00  0.00    -0.270 OA
BRANCH  18  20
ATOM     20  C   UNL     1      19.062  15.590   4.986  1.00  0.00     0.063 C 
ATOM     21  C   UNL     1      18.969  14.442   5.672  1.00  0.00     0.014 C 
ENDBRANCH  18  20
ENDBRANCH  12  18
ENDBRANCH  10  11
ENDBRANCH   1  10
BRANCH   3  22
ATOM     22  C   UNL     1      16.315   8.399   5.249  1.00  0.00    -0.017 A 
ATOM     23  C   UNL     1      17.047   8.804   6.373  1.00  0.00     0.012 A 
ATOM     24  C   UNL     1      16.551   7.133   4.694  1.00  0.00     0.012 A 
ATOM     25  C   UNL     1      18.006   7.955   6.929  1.00  0.00     0.047 A 
ATOM     26  C   UNL     1      17.511   6.285   5.251  1.00  0.00     0.047 A 
ATOM     27  C   UNL     1      18.231   6.706   6.365  1.00  0.00     0.115 A 
BRANCH  27  28
ATOM     28  O   UNL     1      19.177   5.911   6.940  1.00  0.00    -0.508 OA
ATOM     29  H   UNL     1      19.267   6.156   7.876  1.00  0.00     0.293 HD
ENDBRANCH  27  28
ENDBRANCH   3  22
TORSDOF 6
ENDMDL
MODEL 5
REMARK VINA RESULT:      -7.6      2.551      5.683
REMARK SMILES C=CC(=O)N1CC[C@@H](Oc2cc(-c3ccc(O)cc3)cn3cncc23)C[C@H]1C
REMARK SMILES IDX 10 1 11 2 12 3 20 4 21 5 22 6 23 7 24 8 25 9 9 10 8 11 5 12
REMARK SMILES IDX 6 13 27 14 7 15 26 16 28 17 3 18 4 19 2 20 1 21 13 22 14 23
REMARK SMILES IDX 19 24 15 25 18 26 16 27 17 28
REMARK H PARENT 17 29
ROOT
ATOM      1  C   UNL     1      13.694  14.733   3.911  1.00  0.00     0.146 A 
ATOM      2  C   UNL     1      14.260  13.525   4.095  1.00  0.00     0.059 A 
ATOM      3  C   UNL     1      13.859  12.352   3.311  1.00  0.00     0.002 A 
ATOM      4  C   UNL     1      12.917  12.524   2.359  1.00  0.00     0.101 A 
ATOM      5  N   UNL     1      12.367  13.787   2.157  1.00  0.00    -0.302 N 
ATOM      6  C   UNL     1      11.418  14.198   1.255  1.00  0.00     0.204 A 
ATOM      7  N   UNL     1      11.160  15.484   1.356  1.00  0.00    -0.244 NA
ATOM      8  C   UNL     1      11.976  15.935   2.365  1.00  0.00     0.143 A 
ATOM      9  C   UNL     1      12.722  14.906   2.893  1.00  0.00     0.107 A 
ENDROOT
BRANCH   1  10
ATOM     10  O   UNL     1      14.095  15.851   4.601  1.00  0.00    -0.488 OA
BRANCH  10  11
ATOM     11  C   UNL     1      15.256  15.618   5.416  1.00  0.00     0.177 C 
ATOM     12  N   UNL     1      17.309  16.170   7.224  1.00  0.00    -0.336 N 
ATOM     13  C   UNL     1      15.999  16.689   7.607  1.00  0.00     0.124 C 
ATOM     14  C   UNL     1      17.653  16.304   5.795  1.00  0.00     0.086 C 
ATOM     15  C   UNL     1      14.887  15.948   6.871  1.00  0.00     0.067 C 
ATOM     16  C   UNL     1      16.401  16.503   4.924  1.00  0.00     0.070 C 
ATOM     17  C   UNL     1      18.627  17.462   5.563  1.00  0.00     0.031 C 
BRANCH  12  18
ATOM     18  C   UNL     1      18.107  15.616   8.219  1.00  0.00     0.246 C 
ATOM     19  O   UNL     1      18.140  16.062   9.365  1.00  0.00    -0.270 OA
BRANCH  18  20
ATOM     20  C   UNL     1      18.936  14.427   7.869  1.00  0.00     0.063 C 
ATOM     21  C   UNL     1      18.358  13.312   7.400  1.00  0.00     0.014 C 
ENDBRANCH  18  20
ENDBRANCH  12  18
ENDBRANCH  10  11
ENDBRANCH   1  10
BRANCH   3  22
ATOM     22  C   UNL     1      14.434  11.014   3.519  1.00  0.00    -0.017 A 
ATOM     23  C   UNL     1      15.391  10.796   4.518  1.00  0.00     0.012 A 
ATOM     24  C   UNL     1      14.015   9.939   2.721  1.00  0.00     0.012 A 
ATOM     25  C   UNL     1      15.927   9.521   4.711  1.00  0.00     0.047 A 
ATOM     26  C   UNL     1      14.551   8.664   2.915  1.00  0.00     0.047 A 
ATOM     27  C   UNL     1      15.504   8.468   3.909  1.00  0.00     0.115 A 
BRANCH  27  28
ATOM     28  O   UNL     1      16.054   7.240   4.133  1.00  0.00    -0.508 OA
ATOM     29  H   UNL     1      16.821   7.342   4.719  1.00  0.00     0.293 HD
ENDBRANCH  27  28
ENDBRANCH   3  22
TORSDOF 6
ENDMDL
MODEL 6
REMARK VINA RESULT:      -7.4      2.959      4.541
REMARK SMILES C=CC(=O)N1CC[C@@H](Oc2cc(-c3ccc(O)cc3)cn3cncc23)C[C@H]1C
REMARK SMILES IDX 10 1 11 2 12 3 20 4 21 5 22 6 23 7 24 8 25 9 9 10 8 11 5 12
REMARK SMILES IDX 6 13 27 14 7 15 26 16 28 17 3 18 4 19 2 20 1 21 13 22 14 23
REMARK SMILES IDX 19 24 15 25 18 26 16 27 17 28
REMARK H PARENT 17 29
ROOT
ATOM      1  C   UNL     1      15.839  12.559   6.008  1.00  0.00     0.146 A 
ATOM      2  C   UNL     1      14.738  12.479   5.237  1.00  0.00     0.059 A 
ATOM      3  C   UNL     1      14.630  11.516   4.136  1.00  0.00     0.002 A 
ATOM      4  C   UNL     1      15.665  10.673   3.934  1.00  0.00     0.101 A 
ATOM      5  N   UNL     1      16.781  10.745   4.762  1.00  0.00    -0.302 N 
ATOM      6  C   UNL     1      17.931   9.995   4.755  1.00  0.00     0.204 A 
ATOM      7  N   UNL     1      18.762  10.350   5.711  1.00  0.00    -0.244 NA
ATOM      8  C   UNL     1      18.130  11.373   6.374  1.00  0.00     0.143 A 
ATOM      9  C   UNL     1      16.910  11.653   5.801  1.00  0.00     0.107 A 
ENDROOT
BRANCH   1  10
ATOM     10  O   UNL     1      15.934  13.420   7.075  1.00  0.00    -0.488 OA
BRANCH  10  11
ATOM     11  C   UNL     1      16.426  14.718   6.703  1.00  0.00     0.177 C 
ATOM     12  N   UNL     1      17.219  17.376   7.008  1.00  0.00    -0.336 N 
ATOM     13  C   UNL     1      17.695  16.470   8.050  1.00  0.00     0.124 C 
ATOM     14  C   UNL     1      15.826  17.165   6.570  1.00  0.00     0.086 C 
ATOM     15  C   UNL     1      17.658  15.023   7.568  1.00  0.00     0.067 C 
ATOM     16  C   UNL     1      15.324  15.755   6.927  1.00  0.00     0.070 C 
ATOM     17  C   UNL     1      14.887  18.211   7.176  1.00  0.00     0.031 C 
BRANCH  12  18
ATOM     18  C   UNL     1      18.097  18.346   6.537  1.00  0.00     0.246 C 
ATOM     19  O   UNL     1      18.415  19.330   7.203  1.00  0.00    -0.270 OA
BRANCH  18  20
ATOM     20  C   UNL     1      18.677  18.160   5.176  1.00  0.00     0.063 C 
ATOM     21  C   UNL     1      19.437  17.091   4.902  1.00  0.00     0.014 C 
ENDBRANCH  18  20
ENDBRANCH  12  18
ENDBRANCH  10  11
ENDBRANCH   1  10
BRANCH   3  22
ATOM     22  C   UNL     1      13.455  11.434   3.254  1.00  0.00    -0.017 A 
ATOM     23  C   UNL     1      12.599  12.532   3.103  1.00  0.00     0.012 A 
ATOM     24  C   UNL     1      13.191  10.253   2.546  1.00  0.00     0.012 A 
ATOM     25  C   UNL     1      11.490  12.448   2.259  1.00  0.00     0.047 A 
ATOM     26  C   UNL     1      12.080  10.169   1.702  1.00  0.00     0.047 A 
ATOM     27  C   UNL     1      11.239  11.269   1.567  1.00  0.00     0.115 A 
BRANCH  27  28
ATOM     28  O   UNL     1      10.145  11.230   0.755  1.00  0.00    -0.508 OA
ATOM     29  H   UNL     1       9.751  12.117   0.717  1.00  0.00     0.293 HD
ENDBRANCH  27  28
ENDBRANCH   3  22
TORSDOF 6
ENDMDL
MODEL 7
REMARK VINA RESULT:      -7.4      1.689      2.296
REMARK SMILES C=CC(=O)N1CC[C@@H](Oc2cc(-c3ccc(O)cc3)cn3cncc23)C[C@H]1C
REMARK SMILES IDX 10 1 11 2 12 3 20 4 21 5 22 6 23 7 24 8 25 9 9 10 8 11 5 12
REMARK SMILES IDX 6 13 27 14 7 15 26 16 28 17 3 18 4 19 2 20 1 21 13 22 14 23
REMARK SMILES IDX 19 24 15 25 18 26 16 27 17 28
REMARK H PARENT 17 29
ROOT
ATOM      1  C   UNL     1      14.813  12.179   5.168  1.00  0.00     0.146 A 
ATOM      2  C   UNL     1      14.058  13.035   4.454  1.00  0.00     0.059 A 
ATOM      3  C   UNL     1      13.414  12.640   3.198  1.00  0.00     0.002 A 
ATOM      4  C   UNL     1      13.568  11.364   2.786  1.00  0.00     0.101 A 
ATOM      5  N   UNL     1      14.322  10.480   3.554  1.00  0.00    -0.302 N 
ATOM      6  C   UNL     1      14.603   9.153   3.345  1.00  0.00     0.204 A 
ATOM      7  N   UNL     1      15.344   8.645   4.306  1.00  0.00    -0.244 NA
ATOM      8  C   UNL     1      15.554   9.681   5.183  1.00  0.00     0.143 A 
ATOM      9  C   UNL     1      14.949  10.834   4.737  1.00  0.00     0.107 A 
ENDROOT
BRANCH   1  10
ATOM     10  O   UNL     1      15.381  12.519   6.372  1.00  0.00    -0.488 OA
BRANCH  10  11
ATOM     11  C   UNL     1      16.499  13.411   6.230  1.00  0.00     0.177 C 
ATOM     12  N   UNL     1      18.604  15.074   6.999  1.00  0.00    -0.336 N 
ATOM     13  C   UNL     1      18.509  13.821   7.743  1.00  0.00     0.124 C 
ATOM     14  C   UNL     1      17.320  15.746   6.719  1.00  0.00     0.086 C 
ATOM     15  C   UNL     1      17.696  12.790   6.965  1.00  0.00     0.067 C 
ATOM     16  C   UNL     1      16.134  14.772   6.823  1.00  0.00     0.070 C 
ATOM     17  C   UNL     1      17.094  16.931   7.661  1.00  0.00     0.031 C 
BRANCH  12  18
ATOM     18  C   UNL     1      19.869  15.522   6.637  1.00  0.00     0.246 C 
ATOM     19  O   UNL     1      20.659  16.003   7.449  1.00  0.00    -0.270 OA
BRANCH  18  20
ATOM     20  C   UNL     1      20.273  15.393   5.207  1.00  0.00     0.063 C 
ATOM     21  C   UNL     1      20.322  14.188   4.622  1.00  0.00     0.014 C 
ENDBRANCH  18  20
ENDBRANCH  12  18
ENDBRANCH  10  11
ENDBRANCH   1  10
BRANCH   3  22
ATOM     22  C   UNL     1      12.616  13.566   2.379  1.00  0.00    -0.017 A 
ATOM     23  C   UNL     1      12.306  13.256   1.049  1.00  0.00     0.012 A 
ATOM     24  C   UNL     1      12.148  14.767   2.932  1.00  0.00     0.012 A 
ATOM     25  C   UNL     1      11.544  14.139   0.281  1.00  0.00     0.047 A 
ATOM     26  C   UNL     1      11.386  15.650   2.164  1.00  0.00     0.047 A 
ATOM     27  C   UNL     1      11.091  15.326   0.843  1.00  0.00     0.115 A 
BRANCH  27  28
ATOM     28  O   UNL     1      10.351  16.158   0.057  1.00  0.00    -0.508 OA
ATOM     29  H   UNL     1       9.470  16.262   0.452  1.00  0.00     0.293 HD
ENDBRANCH  27  28
ENDBRANCH   3  22
TORSDOF 6
ENDMDL
MODEL 8
REMARK VINA RESULT:      -7.1      2.937      6.344
REMARK SMILES C=CC(=O)N1CC[C@@H](Oc2cc(-c3ccc(O)cc3)cn3cncc23)C[C@H]1C
REMARK SMILES IDX 10 1 11 2 12 3 20 4 21 5 22 6 23 7 24 8 25 9 9 10 8 11 5 12
REMARK SMILES IDX 6 13 27 14 7 15 26 16 28 17 3 18 4 19 2 20 1 21 13 22 14 23
REMARK SMILES IDX 19 24 15 25 18 26 16 27 17 28
REMARK H PARENT 17 29
ROOT
ATOM      1  C   UNL     1      14.776  12.861   3.679  1.00  0.00     0.146 A 
ATOM      2  C   UNL     1      15.530  11.922   4.282  1.00  0.00     0.059 A 
ATOM      3  C   UNL     1      15.121  10.515   4.335  1.00  0.00     0.002 A 
ATOM      4  C   UNL     1      13.969  10.171   3.722  1.00  0.00     0.101 A 
ATOM      5  N   UNL     1      13.218  11.147   3.072  1.00  0.00    -0.302 N 
ATOM      6  C   UNL     1      12.038  11.033   2.381  1.00  0.00     0.204 A 
ATOM      7  N   UNL     1      11.637  12.185   1.890  1.00  0.00    -0.244 NA
ATOM      8  C   UNL     1      12.595  13.092   2.271  1.00  0.00     0.143 A 
ATOM      9  C   UNL     1      13.578  12.484   3.019  1.00  0.00     0.107 A 
ENDROOT
BRANCH   1  10
ATOM     10  O   UNL     1      15.169  14.174   3.576  1.00  0.00    -0.488 OA
BRANCH  10  11
ATOM     11  C   UNL     1      15.939  14.615   4.707  1.00  0.00     0.177 C 
ATOM     12  N   UNL     1      17.411  16.349   6.325  1.00  0.00    -0.336 N 
ATOM     13  C   UNL     1      16.203  16.929   5.744  1.00  0.00     0.124 C 
ATOM     14  C   UNL     1      18.196  15.484   5.424  1.00  0.00     0.086 C 
ATOM     15  C   UNL     1      15.230  15.835   5.315  1.00  0.00     0.067 C 
ATOM     16  C   UNL     1      17.351  14.974   4.244  1.00  0.00     0.070 C 
ATOM     17  C   UNL     1      19.433  16.211   4.891  1.00  0.00     0.031 C 
BRANCH  12  18
ATOM     18  C   UNL     1      17.716  16.664   7.644  1.00  0.00     0.246 C 
ATOM     19  O   UNL     1      17.393  15.944   8.588  1.00  0.00    -0.270 OA
BRANCH  18  20
ATOM     20  C   UNL     1      18.477  17.920   7.904  1.00  0.00     0.063 C 
ATOM     21  C   UNL     1      19.733  17.868   8.371  1.00  0.00     0.014 C 
ENDBRANCH  18  20
ENDBRANCH  12  18
ENDBRANCH  10  11
ENDBRANCH   1  10
BRANCH   3  22
ATOM     22  C   UNL     1      15.907   9.477   5.020  1.00  0.00    -0.017 A 
ATOM     23  C   UNL     1      16.658   9.788   6.161  1.00  0.00     0.012 A 
ATOM     24  C   UNL     1      15.899   8.159   4.540  1.00  0.00     0.012 A 
ATOM     25  C   UNL     1      17.396   8.795   6.809  1.00  0.00     0.047 A 
ATOM     26  C   UNL     1      16.637   7.166   5.188  1.00  0.00     0.047 A 
ATOM     27  C   UNL     1      17.380   7.495   6.318  1.00  0.00     0.115 A 
BRANCH  27  28
ATOM     28  O   UNL     1      18.115   6.558   6.981  1.00  0.00    -0.508 OA
ATOM     29  H   UNL     1      18.918   6.978   7.329  1.00  0.00     0.293 HD
ENDBRANCH  27  28
ENDBRANCH   3  22
TORSDOF 6
ENDMDL
MODEL 9
REMARK VINA RESULT:      -6.7      2.947      5.318
REMARK SMILES C=CC(=O)N1CC[C@@H](Oc2cc(-c3ccc(O)cc3)cn3cncc23)C[C@H]1C
REMARK SMILES IDX 10 1 11 2 12 3 20 4 21 5 22 6 23 7 24 8 25 9 9 10 8 11 5 12
REMARK SMILES IDX 6 13 27 14 7 15 26 16 28 17 3 18 4 19 2 20 1 21 13 22 14 23
REMARK SMILES IDX 19 24 15 25 18 26 16 27 17 28
REMARK H PARENT 17 29
ROOT
ATOM      1  C   UNL     1      13.796  12.955   3.926  1.00  0.00     0.146 A 
ATOM      2  C   UNL     1      14.442  13.824   4.728  1.00  0.00     0.059 A 
ATOM      3  C   UNL     1      14.285  15.275   4.585  1.00  0.00     0.002 A 
ATOM      4  C   UNL     1      13.435  15.726   3.639  1.00  0.00     0.101 A 
ATOM      5  N   UNL     1      12.748  14.815   2.841  1.00  0.00    -0.302 N 
ATOM      6  C   UNL     1      11.838  15.035   1.838  1.00  0.00     0.204 A 
ATOM      7  N   UNL     1      11.389  13.913   1.319  1.00  0.00    -0.244 NA
ATOM      8  C   UNL     1      12.028  12.915   2.013  1.00  0.00     0.143 A 
ATOM      9  C   UNL     1      12.889  13.441   2.950  1.00  0.00     0.107 A 
ENDROOT
BRANCH   1  10
ATOM     10  O   UNL     1      13.893  11.594   4.081  1.00  0.00    -0.488 OA
BRANCH  10  11
ATOM     11  C   UNL     1      15.124  11.188   4.702  1.00  0.00     0.177 C 
ATOM     12  N   UNL     1      17.593   9.918   4.980  1.00  0.00    -0.336 N 
ATOM     13  C   UNL     1      17.378  10.563   3.688  1.00  0.00     0.124 C 
ATOM     14  C   UNL     1      16.431   9.196   5.532  1.00  0.00     0.086 C 
ATOM     15  C   UNL     1      16.281  11.619   3.787  1.00  0.00     0.067 C 
ATOM     16  C   UNL     1      15.112   9.672   4.898  1.00  0.00     0.070 C 
ATOM     17  C   UNL     1      16.573   7.684   5.343  1.00  0.00     0.031 C 
BRANCH  12  18
ATOM     18  C   UNL     1      18.852  10.027   5.561  1.00  0.00     0.246 C 
ATOM     19  O   UNL     1      19.852   9.497   5.077  1.00  0.00    -0.270 OA
BRANCH  18  20
ATOM     20  C   UNL     1      18.978  10.833   6.808  1.00  0.00     0.063 C 
ATOM     21  C   UNL     1      18.559  12.106   6.839  1.00  0.00     0.014 C 
ENDBRANCH  18  20
ENDBRANCH  12  18
ENDBRANCH  10  11
ENDBRANCH   1  10
BRANCH   3  22
ATOM     22  C   UNL     1      15.008  16.246   5.422  1.00  0.00    -0.017 A 
ATOM     23  C   UNL     1      16.388  16.430   5.270  1.00  0.00     0.012 A 
ATOM     24  C   UNL     1      14.313  17.008   6.373  1.00  0.00     0.012 A 
ATOM     25  C   UNL     1      17.065  17.358   6.064  1.00  0.00     0.047 A 
ATOM     26  C   UNL     1      14.990  17.936   7.167  1.00  0.00     0.047 A 
ATOM     27  C   UNL     1      16.362  18.102   7.005  1.00  0.00     0.115 A 
BRANCH  27  28
ATOM     28  O   UNL     1      17.063  18.995   7.758  1.00  0.00    -0.508 OA
ATOM     29  H   UNL     1      16.468  19.381   8.423  1.00  0.00     0.293 HD
ENDBRANCH  27  28
ENDBRANCH   3  22
TORSDOF 6
ENDMDL
