MODEL 1
REMARK minimizedAffinity -8.92294121
REMARK CNNscore 0.974447727
REMARK CNNaffinity 6.15703058
REMARK SMILES Brc1cnc2[nH]cc(-c3ccccc3)c2c1
REMARK SMILES IDX 1 1 2 2 3 3 4 4 5 5 6 6 7 7 8 8 15 9 16 10 9 12 10 13 14 14
REMARK SMILES IDX 11 15 13 16 12 17
REMARK H PARENT 6 11
ROOT
ATOM      1  Br  UNL     1     -16.891   1.067 -15.333  1.00  0.00    -0.049 Br
ATOM      2  C   UNL     1     -18.538   1.912 -14.965  1.00  0.00     0.037 A 
ATOM      3  C   UNL     1     -18.700   3.273 -15.197  1.00  0.00     0.129 A 
ATOM      4  N   UNL     1     -19.832   3.983 -14.968  1.00  0.00    -0.237 NA
ATOM      5  C   UNL     1     -20.829   3.224 -14.476  1.00  0.00     0.137 A 
ATOM      6  N   UNL     1     -22.069   3.701 -14.154  1.00  0.00    -0.346 N 
ATOM      7  C   UNL     1     -22.852   2.679 -13.679  1.00  0.00     0.093 A 
ATOM      8  C   UNL     1     -22.101   1.517 -13.698  1.00  0.00     0.009 A 
ATOM      9  C   UNL     1     -20.807   1.859 -14.203  1.00  0.00     0.028 A 
ATOM     10  C   UNL     1     -19.604   1.173 -14.455  1.00  0.00     0.030 A 
ATOM     11  H   UNL     1     -22.341   4.667 -14.262  1.00  0.00     0.167 HD
ENDROOT
BRANCH   8  12
ATOM     12  C   UNL     1     -22.626   0.229 -13.279  1.00  0.00    -0.016 A 
ATOM     13  C   UNL     1     -23.596  -0.431 -14.045  1.00  0.00     0.009 A 
ATOM     14  C   UNL     1     -22.168  -0.369 -12.098  1.00  0.00     0.009 A 
ATOM     15  C   UNL     1     -24.101  -1.667 -13.634  1.00  0.00     0.001 A 
ATOM     16  C   UNL     1     -22.672  -1.606 -11.689  1.00  0.00     0.001 A 
ATOM     17  C   UNL     1     -23.639  -2.253 -12.457  1.00  0.00     0.000 A 
ENDBRANCH   8  12
TORSDOF 1
ENDMDL
MODEL 2
REMARK minimizedAffinity -7.5870719
REMARK CNNscore 0.953254998
REMARK CNNaffinity 5.84143209
REMARK SMILES Brc1cnc2[nH]cc(-c3ccccc3)c2c1
REMARK SMILES IDX 1 1 2 2 3 3 4 4 5 5 6 6 7 7 8 8 15 9 16 10 9 12 10 13 14 14
REMARK SMILES IDX 11 15 13 16 12 17
REMARK H PARENT 6 11
ROOT
ATOM      1  Br  UNL     1     -23.268   0.198 -13.447  1.00  0.00    -0.049 Br
ATOM      2  C   UNL     1     -21.910   1.438 -13.870  1.00  0.00     0.037 A 
ATOM      3  C   UNL     1     -22.224   2.766 -14.135  1.00  0.00     0.129 A 
ATOM      4  N   UNL     1     -21.335   3.738 -14.452  1.00  0.00    -0.237 NA
ATOM      5  C   UNL     1     -20.066   3.290 -14.487  1.00  0.00     0.137 A 
ATOM      6  N   UNL     1     -18.985   4.070 -14.788  1.00  0.00    -0.346 N 
ATOM      7  C   UNL     1     -17.840   3.316 -14.742  1.00  0.00     0.093 A 
ATOM      8  C   UNL     1     -18.190   2.022 -14.399  1.00  0.00     0.009 A 
ATOM      9  C   UNL     1     -19.612   1.998 -14.239  1.00  0.00     0.028 A 
ATOM     10  C   UNL     1     -20.579   1.027 -13.920  1.00  0.00     0.030 A 
ATOM     11  H   UNL     1     -19.049   5.053 -15.007  1.00  0.00     0.167 HD
ENDROOT
BRANCH   8  12
ATOM     12  C   UNL     1     -17.217   0.955 -14.238  1.00  0.00    -0.016 A 
ATOM     13  C   UNL     1     -17.234  -0.160 -15.086  1.00  0.00     0.009 A 
ATOM     14  C   UNL     1     -16.249   1.028 -13.229  1.00  0.00     0.009 A 
ATOM     15  C   UNL     1     -16.300  -1.186 -14.924  1.00  0.00     0.001 A 
ATOM     16  C   UNL     1     -15.315   0.003 -13.068  1.00  0.00     0.001 A 
ATOM     17  C   UNL     1     -15.341  -1.104 -13.916  1.00  0.00     0.000 A 
ENDBRANCH   8  12
TORSDOF 1
ENDMDL
MODEL 3
REMARK minimizedAffinity -6.93872595
REMARK CNNscore 0.855737448
REMARK CNNaffinity 5.72368956
REMARK SMILES Brc1cnc2[nH]cc(-c3ccccc3)c2c1
REMARK SMILES IDX 1 1 2 2 3 3 4 4 5 5 6 6 7 7 8 8 15 9 16 10 9 12 10 13 14 14
REMARK SMILES IDX 11 15 13 16 12 17
REMARK H PARENT 6 11
ROOT
ATOM      1  Br  UNL     1     -22.209   1.228 -13.921  1.00  0.00    -0.049 Br
ATOM      2  C   UNL     1     -20.521   1.919 -14.404  1.00  0.00     0.037 A 
ATOM      3  C   UNL     1     -20.410   3.190 -14.955  1.00  0.00     0.129 A 
ATOM      4  N   UNL     1     -19.255   3.784 -15.340  1.00  0.00    -0.237 NA
ATOM      5  C   UNL     1     -18.176   3.006 -15.133  1.00  0.00     0.137 A 
ATOM      6  N   UNL     1     -16.896   3.369 -15.443  1.00  0.00    -0.346 N 
ATOM      7  C   UNL     1     -16.031   2.357 -15.113  1.00  0.00     0.093 A 
ATOM      8  C   UNL     1     -16.770   1.319 -14.574  1.00  0.00     0.009 A 
ATOM      9  C   UNL     1     -18.142   1.726 -14.588  1.00  0.00     0.028 A 
ATOM     10  C   UNL     1     -19.372   1.155 -14.210  1.00  0.00     0.030 A 
ATOM     11  H   UNL     1     -16.652   4.259 -15.853  1.00  0.00     0.167 HD
ENDROOT
BRANCH   8  12
ATOM     12  C   UNL     1     -16.170   0.086 -14.093  1.00  0.00    -0.016 A 
ATOM     13  C   UNL     1     -16.304  -1.104 -14.821  1.00  0.00     0.009 A 
ATOM     14  C   UNL     1     -15.449   0.073 -12.893  1.00  0.00     0.009 A 
ATOM     15  C   UNL     1     -15.729  -2.288 -14.352  1.00  0.00     0.001 A 
ATOM     16  C   UNL     1     -14.873  -1.110 -12.425  1.00  0.00     0.001 A 
ATOM     17  C   UNL     1     -15.014  -2.290 -13.155  1.00  0.00     0.000 A 
ENDBRANCH   8  12
TORSDOF 1
ENDMDL
MODEL 4
REMARK minimizedAffinity -7.61136389
REMARK CNNscore 0.782685935
REMARK CNNaffinity 6.16965532
REMARK SMILES Brc1cnc2[nH]cc(-c3ccccc3)c2c1
REMARK SMILES IDX 1 1 2 2 3 3 4 4 5 5 6 6 7 7 8 8 15 9 16 10 9 12 10 13 14 14
REMARK SMILES IDX 11 15 13 16 12 17
REMARK H PARENT 6 11
ROOT
ATOM      1  Br  UNL     1     -22.838  -1.977 -12.425  1.00  0.00    -0.049 Br
ATOM      2  C   UNL     1     -22.552  -0.199 -12.989  1.00  0.00     0.037 A 
ATOM      3  C   UNL     1     -23.550   0.757 -12.844  1.00  0.00     0.129 A 
ATOM      4  N   UNL     1     -23.457   2.057 -13.214  1.00  0.00    -0.237 NA
ATOM      5  C   UNL     1     -22.262   2.358 -13.757  1.00  0.00     0.137 A 
ATOM      6  N   UNL     1     -21.918   3.597 -14.218  1.00  0.00    -0.346 N 
ATOM      7  C   UNL     1     -20.638   3.573 -14.710  1.00  0.00     0.093 A 
ATOM      8  C   UNL     1     -20.144   2.289 -14.559  1.00  0.00     0.009 A 
ATOM      9  C   UNL     1     -21.178   1.508 -13.955  1.00  0.00     0.028 A 
ATOM     10  C   UNL     1     -21.332   0.166 -13.556  1.00  0.00     0.030 A 
ATOM     11  H   UNL     1     -22.534   4.396 -14.186  1.00  0.00     0.167 HD
ENDROOT
BRANCH   8  12
ATOM     12  C   UNL     1     -18.799   1.907 -14.958  1.00  0.00    -0.016 A 
ATOM     13  C   UNL     1     -18.412   0.560 -14.962  1.00  0.00     0.009 A 
ATOM     14  C   UNL     1     -17.872   2.883 -15.343  1.00  0.00     0.009 A 
ATOM     15  C   UNL     1     -17.118   0.198 -15.342  1.00  0.00     0.001 A 
ATOM     16  C   UNL     1     -16.579   2.520 -15.723  1.00  0.00     0.001 A 
ATOM     17  C   UNL     1     -16.202   1.178 -15.722  1.00  0.00     0.000 A 
ENDBRANCH   8  12
TORSDOF 1
ENDMDL
MODEL 5
REMARK minimizedAffinity -6.50388813
REMARK CNNscore 0.725195408
REMARK CNNaffinity 5.40876245
REMARK SMILES Brc1cnc2[nH]cc(-c3ccccc3)c2c1
REMARK SMILES IDX 1 1 2 2 3 3 4 4 5 5 6 6 7 7 8 8 15 9 16 10 9 12 10 13 14 14
REMARK SMILES IDX 11 15 13 16 12 17
REMARK H PARENT 6 11
ROOT
ATOM      1  Br  UNL     1     -29.324  -2.685  -1.117  1.00  0.00    -0.049 Br
ATOM      2  C   UNL     1     -29.635  -3.692  -2.683  1.00  0.00     0.037 A 
ATOM      3  C   UNL     1     -30.402  -4.850  -2.636  1.00  0.00     0.129 A 
ATOM      4  N   UNL     1     -30.687  -5.650  -3.693  1.00  0.00    -0.237 NA
ATOM      5  C   UNL     1     -30.141  -5.207  -4.841  1.00  0.00     0.137 A 
ATOM      6  N   UNL     1     -30.272  -5.837  -6.046  1.00  0.00    -0.346 N 
ATOM      7  C   UNL     1     -29.599  -5.137  -7.015  1.00  0.00     0.093 A 
ATOM      8  C   UNL     1     -29.023  -4.028  -6.420  1.00  0.00     0.009 A 
ATOM      9  C   UNL     1     -29.363  -4.069  -5.031  1.00  0.00     0.028 A 
ATOM     10  C   UNL     1     -29.094  -3.278  -3.898  1.00  0.00     0.030 A 
ATOM     11  H   UNL     1     -30.796  -6.691  -6.176  1.00  0.00     0.167 HD
ENDROOT
BRANCH   8  12
ATOM     12  C   UNL     1     -28.247  -3.047  -7.160  1.00  0.00    -0.016 A 
ATOM     13  C   UNL     1     -27.880  -3.284  -8.491  1.00  0.00     0.009 A 
ATOM     14  C   UNL     1     -27.854  -1.850  -6.548  1.00  0.00     0.009 A 
ATOM     15  C   UNL     1     -27.129  -2.340  -9.197  1.00  0.00     0.001 A 
ATOM     16  C   UNL     1     -27.104  -0.907  -7.254  1.00  0.00     0.001 A 
ATOM     17  C   UNL     1     -26.742  -1.153  -8.578  1.00  0.00     0.000 A 
ENDBRANCH   8  12
TORSDOF 1
ENDMDL
MODEL 6
REMARK minimizedAffinity -6.25741959
REMARK CNNscore 0.680606365
REMARK CNNaffinity 5.79993296
REMARK SMILES Brc1cnc2[nH]cc(-c3ccccc3)c2c1
REMARK SMILES IDX 1 1 2 2 3 3 4 4 5 5 6 6 7 7 8 8 15 9 16 10 9 12 10 13 14 14
REMARK SMILES IDX 11 15 13 16 12 17
REMARK H PARENT 6 11
ROOT
ATOM      1  Br  UNL     1     -27.276  -1.247 -14.595  1.00  0.00    -0.049 Br
ATOM      2  C   UNL     1     -25.796  -1.284 -13.425  1.00  0.00     0.037 A 
ATOM      3  C   UNL     1     -25.809  -2.094 -12.296  1.00  0.00     0.129 A 
ATOM      4  N   UNL     1     -24.808  -2.197 -11.388  1.00  0.00    -0.237 NA
ATOM      5  C   UNL     1     -23.754  -1.416 -11.687  1.00  0.00     0.137 A 
ATOM      6  N   UNL     1     -22.620  -1.333 -10.928  1.00  0.00    -0.346 N 
ATOM      7  C   UNL     1     -21.739  -0.451 -11.501  1.00  0.00     0.093 A 
ATOM      8  C   UNL     1     -22.317   0.042 -12.658  1.00  0.00     0.009 A 
ATOM      9  C   UNL     1     -23.605  -0.567 -12.780  1.00  0.00     0.028 A 
ATOM     10  C   UNL     1     -24.678  -0.495 -13.688  1.00  0.00     0.030 A 
ATOM     11  H   UNL     1     -22.479  -1.856 -10.077  1.00  0.00     0.167 HD
ENDROOT
BRANCH   8  12
ATOM     12  C   UNL     1     -21.649   0.992 -13.533  1.00  0.00    -0.016 A 
ATOM     13  C   UNL     1     -20.505   0.619 -14.250  1.00  0.00     0.009 A 
ATOM     14  C   UNL     1     -22.143   2.295 -13.668  1.00  0.00     0.009 A 
ATOM     15  C   UNL     1     -19.864   1.536 -15.086  1.00  0.00     0.001 A 
ATOM     16  C   UNL     1     -21.502   3.212 -14.504  1.00  0.00     0.001 A 
ATOM     17  C   UNL     1     -20.363   2.832 -15.212  1.00  0.00     0.000 A 
ENDBRANCH   8  12
TORSDOF 1
ENDMDL
MODEL 7
REMARK minimizedAffinity -5.79237461
REMARK CNNscore 0.50469923
REMARK CNNaffinity 5.59630966
REMARK SMILES Brc1cnc2[nH]cc(-c3ccccc3)c2c1
REMARK SMILES IDX 1 1 2 2 3 3 4 4 5 5 6 6 7 7 8 8 15 9 16 10 9 12 10 13 14 14
REMARK SMILES IDX 11 15 13 16 12 17
REMARK H PARENT 6 11
ROOT
ATOM      1  Br  UNL     1     -21.975  -0.420 -11.583  1.00  0.00    -0.049 Br
ATOM      2  C   UNL     1     -23.799  -0.767 -11.916  1.00  0.00     0.037 A 
ATOM      3  C   UNL     1     -24.295  -0.752 -13.215  1.00  0.00     0.129 A 
ATOM      4  N   UNL     1     -25.582  -0.983 -13.570  1.00  0.00    -0.237 NA
ATOM      5  C   UNL     1     -26.375  -1.241 -12.512  1.00  0.00     0.137 A 
ATOM      6  N   UNL     1     -27.713  -1.498 -12.601  1.00  0.00    -0.346 N 
ATOM      7  C   UNL     1     -28.230  -1.717 -11.349  1.00  0.00     0.093 A 
ATOM      8  C   UNL     1     -27.199  -1.601 -10.433  1.00  0.00     0.009 A 
ATOM      9  C   UNL     1     -26.012  -1.293 -11.170  1.00  0.00     0.028 A 
ATOM     10  C   UNL     1     -24.663  -1.040 -10.858  1.00  0.00     0.030 A 
ATOM     11  H   UNL     1     -28.222  -1.520 -13.473  1.00  0.00     0.167 HD
ENDROOT
BRANCH   8  12
ATOM     12  C   UNL     1     -27.385  -1.793  -9.004  1.00  0.00    -0.016 A 
ATOM     13  C   UNL     1     -26.940  -0.828  -8.091  1.00  0.00     0.009 A 
ATOM     14  C   UNL     1     -28.012  -2.949  -8.523  1.00  0.00     0.009 A 
ATOM     15  C   UNL     1     -27.116  -1.020  -6.718  1.00  0.00     0.001 A 
ATOM     16  C   UNL     1     -28.189  -3.139  -7.151  1.00  0.00     0.001 A 
ATOM     17  C   UNL     1     -27.741  -2.174  -6.249  1.00  0.00     0.000 A 
ENDBRANCH   8  12
TORSDOF 1
ENDMDL
MODEL 8
REMARK minimizedAffinity -7.60195637
REMARK CNNscore 0.472325325
REMARK CNNaffinity 5.22570992
REMARK SMILES Brc1cnc2[nH]cc(-c3ccccc3)c2c1
REMARK SMILES IDX 1 1 2 2 3 3 4 4 5 5 6 6 7 7 8 8 15 9 16 10 9 12 10 13 14 14
REMARK SMILES IDX 11 15 13 16 12 17
REMARK H PARENT 6 11
ROOT
ATOM      1  Br  UNL     1     -15.765  -0.483 -14.945  1.00  0.00    -0.049 Br
ATOM      2  C   UNL     1     -16.947   0.984 -15.056  1.00  0.00     0.037 A 
ATOM      3  C   UNL     1     -16.510   2.206 -15.554  1.00  0.00     0.129 A 
ATOM      4  N   UNL     1     -17.268   3.323 -15.676  1.00  0.00    -0.237 NA
ATOM      5  C   UNL     1     -18.535   3.140 -15.258  1.00  0.00     0.137 A 
ATOM      6  N   UNL     1     -19.495   4.112 -15.270  1.00  0.00    -0.346 N 
ATOM      7  C   UNL     1     -20.673   3.609 -14.780  1.00  0.00     0.093 A 
ATOM      8  C   UNL     1     -20.469   2.281 -14.448  1.00  0.00     0.009 A 
ATOM      9  C   UNL     1     -19.104   1.977 -14.748  1.00  0.00     0.028 A 
ATOM     10  C   UNL     1     -18.269   0.848 -14.638  1.00  0.00     0.030 A 
ATOM     11  H   UNL     1     -19.333   5.053 -15.598  1.00  0.00     0.167 HD
ENDROOT
BRANCH   8  12
ATOM     12  C   UNL     1     -21.518   1.428 -13.915  1.00  0.00    -0.016 A 
ATOM     13  C   UNL     1     -22.712   1.981 -13.434  1.00  0.00     0.009 A 
ATOM     14  C   UNL     1     -21.345   0.039 -13.874  1.00  0.00     0.009 A 
ATOM     15  C   UNL     1     -23.715   1.157 -12.918  1.00  0.00     0.001 A 
ATOM     16  C   UNL     1     -22.349  -0.784 -13.359  1.00  0.00     0.001 A 
ATOM     17  C   UNL     1     -23.533  -0.224 -12.881  1.00  0.00     0.000 A 
ENDBRANCH   8  12
TORSDOF 1
ENDMDL
MODEL 9
REMARK minimizedAffinity -6.9638176
REMARK CNNscore 0.387604475
REMARK CNNaffinity 5.05037498
REMARK SMILES Brc1cnc2[nH]cc(-c3ccccc3)c2c1
REMARK SMILES IDX 1 1 2 2 3 3 4 4 5 5 6 6 7 7 8 8 15 9 16 10 9 12 10 13 14 14
REMARK SMILES IDX 11 15 13 16 12 17
REMARK H PARENT 6 11
ROOT
ATOM      1  Br  UNL     1     -29.207  -2.921  -1.968  1.00  0.00    -0.049 Br
ATOM      2  C   UNL     1     -28.742  -2.591  -3.767  1.00  0.00     0.037 A 
ATOM      3  C   UNL     1     -28.397  -1.310  -4.182  1.00  0.00     0.129 A 
ATOM      4  N   UNL     1     -28.051  -0.958  -5.445  1.00  0.00    -0.237 NA
ATOM      5  C   UNL     1     -28.069  -1.999  -6.298  1.00  0.00     0.137 A 
ATOM      6  N   UNL     1     -27.767  -1.908  -7.627  1.00  0.00    -0.346 N 
ATOM      7  C   UNL     1     -27.880  -3.141  -8.217  1.00  0.00     0.093 A 
ATOM      8  C   UNL     1     -28.261  -4.049  -7.245  1.00  0.00     0.009 A 
ATOM      9  C   UNL     1     -28.386  -3.325  -6.017  1.00  0.00     0.028 A 
ATOM     10  C   UNL     1     -28.744  -3.633  -4.691  1.00  0.00     0.030 A 
ATOM     11  H   UNL     1     -27.500  -1.046  -8.081  1.00  0.00     0.167 HD
ENDROOT
BRANCH   8  12
ATOM     12  C   UNL     1     -28.455  -5.464  -7.516  1.00  0.00    -0.016 A 
ATOM     13  C   UNL     1     -27.469  -6.206  -8.178  1.00  0.00     0.009 A 
ATOM     14  C   UNL     1     -29.636  -6.102  -7.118  1.00  0.00     0.009 A 
ATOM     15  C   UNL     1     -27.663  -7.564  -8.441  1.00  0.00     0.001 A 
ATOM     16  C   UNL     1     -29.830  -7.460  -7.380  1.00  0.00     0.001 A 
ATOM     17  C   UNL     1     -28.843  -8.190  -8.041  1.00  0.00     0.000 A 
ENDBRANCH   8  12
TORSDOF 1
ENDMDL
