MODEL 1
REMARK minimizedAffinity -8.77435017
REMARK CNNscore 0.950842559
REMARK CNNaffinity 7.50200462
REMARK SMILES C#Cc1cccc(Nc2ncnc3cc(OCCOC)c(OCCOC)cc23)c1
REMARK SMILES IDX 9 1 10 2 11 3 12 4 13 5 14 6 15 7 21 8 27 9 28 10 8 11 7 13
REMARK SMILES IDX 2 14 3 15 4 16 29 17 5 18 6 19 1 20 22 21 23 22 24 23 25 24
REMARK SMILES IDX 26 25 16 26 17 27 18 28 19 29 20 30
REMARK H PARENT 8 12
ROOT
ATOM      1  C   UNL     1     -21.193   1.424 -14.149  1.00  0.00     0.141 A 
ATOM      2  N   UNL     1     -22.160   2.354 -14.041  1.00  0.00    -0.219 NA
ATOM      3  C   UNL     1     -21.821   3.615 -14.316  1.00  0.00     0.224 A 
ATOM      4  N   UNL     1     -20.611   4.042 -14.689  1.00  0.00    -0.236 NA
ATOM      5  C   UNL     1     -19.659   3.114 -14.813  1.00  0.00     0.080 A 
ATOM      6  C   UNL     1     -18.393   3.520 -15.206  1.00  0.00     0.079 A 
ATOM      7  C   UNL     1     -17.350   2.604 -15.378  1.00  0.00     0.163 A 
ATOM      8  C   UNL     1     -17.550   1.245 -15.123  1.00  0.00     0.162 A 
ATOM      9  C   UNL     1     -18.821   0.824 -14.730  1.00  0.00     0.064 A 
ATOM     10  C   UNL     1     -19.884   1.754 -14.560  1.00  0.00     0.047 A 
ENDROOT
BRANCH   1  11
ATOM     11  N   UNL     1     -21.485   0.072 -13.812  1.00  0.00    -0.340 N 
ATOM     12  H   UNL     1     -20.614  -0.396 -13.586  1.00  0.00     0.168 HD
BRANCH  11  13
ATOM     13  C   UNL     1     -22.548  -0.427 -13.022  1.00  0.00     0.041 A 
ATOM     14  C   UNL     1     -26.148  -1.419 -13.276  1.00  0.00    -0.070 C 
ATOM     15  C   UNL     1     -24.839  -1.212 -12.738  1.00  0.00     0.026 A 
ATOM     16  C   UNL     1     -24.561  -1.586 -11.422  1.00  0.00     0.017 A 
ATOM     17  C   UNL     1     -23.834  -0.648 -13.534  1.00  0.00     0.043 A 
ATOM     18  C   UNL     1     -23.278  -1.409 -10.909  1.00  0.00     0.003 A 
ATOM     19  C   UNL     1     -22.279  -0.847 -11.708  1.00  0.00     0.026 A 
ATOM     20  C   UNL     1     -27.245  -1.600 -13.729  1.00  0.00     0.010 C 
ENDBRANCH  11  13
ENDBRANCH   1  11
BRANCH   8  21
ATOM     21  O   UNL     1     -16.470   0.426 -15.309  1.00  0.00    -0.487 OA
BRANCH  21  22
ATOM     22  C   UNL     1     -15.889  -0.181 -14.151  1.00  0.00     0.258 C 
BRANCH  22  23
ATOM     23  C   UNL     1     -15.876   0.843 -13.016  1.00  0.00     0.201 C 
BRANCH  23  24
ATOM     24  O   UNL     1     -14.619   0.783 -12.334  1.00  0.00    -0.381 OA
ATOM     25  C   UNL     1     -13.538   1.102 -13.202  1.00  0.00     0.195 C 
ENDBRANCH  23  24
ENDBRANCH  22  23
ENDBRANCH  21  22
ENDBRANCH   8  21
BRANCH   7  26
ATOM     26  O   UNL     1     -16.090   3.034 -15.707  1.00  0.00    -0.487 OA
BRANCH  26  27
ATOM     27  C   UNL     1     -15.989   4.461 -15.814  1.00  0.00     0.258 C 
BRANCH  27  28
ATOM     28  C   UNL     1     -14.799   4.812 -16.707  1.00  0.00     0.201 C 
BRANCH  28  29
ATOM     29  O   UNL     1     -15.203   5.390 -17.950  1.00  0.00    -0.381 OA
ATOM     30  C   UNL     1     -14.179   6.164 -18.565  1.00  0.00     0.195 C 
ENDBRANCH  28  29
ENDBRANCH  27  28
ENDBRANCH  26  27
ENDBRANCH   7  26
TORSDOF 10
ENDMDL
MODEL 2
REMARK minimizedAffinity -8.55040932
REMARK CNNscore 0.922300041
REMARK CNNaffinity 7.43633318
REMARK SMILES C#Cc1cccc(Nc2ncnc3cc(OCCOC)c(OCCOC)cc23)c1
REMARK SMILES IDX 9 1 10 2 11 3 12 4 13 5 14 6 15 7 21 8 27 9 28 10 8 11 7 13
REMARK SMILES IDX 2 14 3 15 4 16 29 17 5 18 6 19 1 20 22 21 23 22 24 23 25 24
REMARK SMILES IDX 26 25 16 26 17 27 18 28 19 29 20 30
REMARK H PARENT 8 12
ROOT
ATOM      1  C   UNL     1     -21.519   1.573 -13.984  1.00  0.00     0.141 A 
ATOM      2  N   UNL     1     -22.418   2.568 -13.869  1.00  0.00    -0.219 NA
ATOM      3  C   UNL     1     -22.024   3.787 -14.242  1.00  0.00     0.224 A 
ATOM      4  N   UNL     1     -20.819   4.113 -14.720  1.00  0.00    -0.236 NA
ATOM      5  C   UNL     1     -19.936   3.121 -14.850  1.00  0.00     0.080 A 
ATOM      6  C   UNL     1     -18.678   3.422 -15.351  1.00  0.00     0.079 A 
ATOM      7  C   UNL     1     -17.708   2.432 -15.536  1.00  0.00     0.163 A 
ATOM      8  C   UNL     1     -17.971   1.105 -15.187  1.00  0.00     0.162 A 
ATOM      9  C   UNL     1     -19.234   0.789 -14.685  1.00  0.00     0.064 A 
ATOM     10  C   UNL     1     -20.225   1.794 -14.501  1.00  0.00     0.047 A 
ENDROOT
BRANCH   1  11
ATOM     11  N   UNL     1     -21.867   0.264 -13.548  1.00  0.00    -0.340 N 
ATOM     12  H   UNL     1     -21.295   0.032 -12.743  1.00  0.00     0.168 HD
BRANCH  11  13
ATOM     13  C   UNL     1     -23.156  -0.311 -13.435  1.00  0.00     0.041 A 
ATOM     14  C   UNL     1     -25.670  -1.341 -10.860  1.00  0.00    -0.070 C 
ATOM     15  C   UNL     1     -25.071  -1.072 -12.131  1.00  0.00     0.026 A 
ATOM     16  C   UNL     1     -25.795  -1.298 -13.303  1.00  0.00     0.017 A 
ATOM     17  C   UNL     1     -23.765  -0.571 -12.199  1.00  0.00     0.043 A 
ATOM     18  C   UNL     1     -25.220  -1.010 -14.538  1.00  0.00     0.003 A 
ATOM     19  C   UNL     1     -23.918  -0.508 -14.600  1.00  0.00     0.026 A 
ATOM     20  C   UNL     1     -26.176  -1.560  -9.793  1.00  0.00     0.010 C 
ENDBRANCH  11  13
ENDBRANCH   1  11
BRANCH   8  21
ATOM     21  O   UNL     1     -16.958   0.208 -15.394  1.00  0.00    -0.487 OA
BRANCH  21  22
ATOM     22  C   UNL     1     -16.179  -0.188 -14.261  1.00  0.00     0.258 C 
BRANCH  22  23
ATOM     23  C   UNL     1     -16.195   0.946 -13.236  1.00  0.00     0.201 C 
BRANCH  23  24
ATOM     24  O   UNL     1     -15.261   0.655 -12.190  1.00  0.00    -0.381 OA
ATOM     25  C   UNL     1     -15.012  -0.742 -12.087  1.00  0.00     0.195 C 
ENDBRANCH  23  24
ENDBRANCH  22  23
ENDBRANCH  21  22
ENDBRANCH   8  21
BRANCH   7  26
ATOM     26  O   UNL     1     -16.450   2.760 -15.974  1.00  0.00    -0.487 OA
BRANCH  26  27
ATOM     27  C   UNL     1     -16.098   4.126 -15.710  1.00  0.00     0.258 C 
BRANCH  27  28
ATOM     28  C   UNL     1     -14.620   4.333 -16.043  1.00  0.00     0.201 C 
BRANCH  28  29
ATOM     29  O   UNL     1     -13.909   4.976 -14.983  1.00  0.00    -0.381 OA
ATOM     30  C   UNL     1     -12.514   4.689 -14.992  1.00  0.00     0.195 C 
ENDBRANCH  28  29
ENDBRANCH  27  28
ENDBRANCH  26  27
ENDBRANCH   7  26
TORSDOF 10
ENDMDL
MODEL 3
REMARK minimizedAffinity -7.83624268
REMARK CNNscore 0.918618798
REMARK CNNaffinity 7.41648817
REMARK SMILES C#Cc1cccc(Nc2ncnc3cc(OCCOC)c(OCCOC)cc23)c1
REMARK SMILES IDX 9 1 10 2 11 3 12 4 13 5 14 6 15 7 21 8 27 9 28 10 8 11 7 13
REMARK SMILES IDX 2 14 3 15 4 16 29 17 5 18 6 19 1 20 22 21 23 22 24 23 25 24
REMARK SMILES IDX 26 25 16 26 17 27 18 28 19 29 20 30
REMARK H PARENT 8 12
ROOT
ATOM      1  C   UNL     1     -21.198   1.447 -14.240  1.00  0.00     0.141 A 
ATOM      2  N   UNL     1     -22.084   2.445 -14.065  1.00  0.00    -0.219 NA
ATOM      3  C   UNL     1     -21.607   3.691 -14.100  1.00  0.00     0.224 A 
ATOM      4  N   UNL     1     -20.332   4.041 -14.291  1.00  0.00    -0.236 NA
ATOM      5  C   UNL     1     -19.459   3.049 -14.482  1.00  0.00     0.080 A 
ATOM      6  C   UNL     1     -18.128   3.376 -14.692  1.00  0.00     0.079 A 
ATOM      7  C   UNL     1     -17.160   2.394 -14.921  1.00  0.00     0.163 A 
ATOM      8  C   UNL     1     -17.506   1.041 -14.910  1.00  0.00     0.162 A 
ATOM      9  C   UNL     1     -18.842   0.699 -14.704  1.00  0.00     0.064 A 
ATOM     10  C   UNL     1     -19.830   1.697 -14.476  1.00  0.00     0.047 A 
ENDROOT
BRANCH   1  11
ATOM     11  N   UNL     1     -21.643   0.097 -14.156  1.00  0.00    -0.340 N 
ATOM     12  H   UNL     1     -20.831  -0.510 -14.198  1.00  0.00     0.168 HD
BRANCH  11  13
ATOM     13  C   UNL     1     -22.641  -0.449 -13.314  1.00  0.00     0.041 A 
ATOM     14  C   UNL     1     -26.231  -1.506 -13.359  1.00  0.00    -0.070 C 
ATOM     15  C   UNL     1     -24.892  -1.290 -12.903  1.00  0.00     0.026 A 
ATOM     16  C   UNL     1     -24.520  -1.699 -11.622  1.00  0.00     0.017 A 
ATOM     17  C   UNL     1     -23.954  -0.680 -13.746  1.00  0.00     0.043 A 
ATOM     18  C   UNL     1     -23.208  -1.513 -11.190  1.00  0.00     0.003 A 
ATOM     19  C   UNL     1     -22.276  -0.905 -12.035  1.00  0.00     0.026 A 
ATOM     20  C   UNL     1     -27.353  -1.695 -13.744  1.00  0.00     0.010 C 
ENDBRANCH  11  13
ENDBRANCH   1  11
BRANCH   8  21
ATOM     21  O   UNL     1     -16.489   0.151 -15.134  1.00  0.00    -0.487 OA
BRANCH  21  22
ATOM     22  C   UNL     1     -16.008  -0.603 -14.017  1.00  0.00     0.258 C 
BRANCH  22  23
ATOM     23  C   UNL     1     -15.479  -1.945 -14.523  1.00  0.00     0.201 C 
BRANCH  23  24
ATOM     24  O   UNL     1     -16.497  -2.941 -14.384  1.00  0.00    -0.381 OA
ATOM     25  C   UNL     1     -15.979  -4.143 -13.825  1.00  0.00     0.195 C 
ENDBRANCH  23  24
ENDBRANCH  22  23
ENDBRANCH  21  22
ENDBRANCH   8  21
BRANCH   7  26
ATOM     26  O   UNL     1     -15.839   2.735 -15.064  1.00  0.00    -0.487 OA
BRANCH  26  27
ATOM     27  C   UNL     1     -15.388   2.691 -16.425  1.00  0.00     0.258 C 
BRANCH  27  28
ATOM     28  C   UNL     1     -13.872   2.490 -16.443  1.00  0.00     0.201 C 
BRANCH  28  29
ATOM     29  O   UNL     1     -13.504   1.153 -16.783  1.00  0.00    -0.381 OA
ATOM     30  C   UNL     1     -12.399   1.088 -17.678  1.00  0.00     0.195 C 
ENDBRANCH  28  29
ENDBRANCH  27  28
ENDBRANCH  26  27
ENDBRANCH   7  26
TORSDOF 10
ENDMDL
MODEL 4
REMARK minimizedAffinity -3.49585819
REMARK CNNscore 0.665921211
REMARK CNNaffinity 7.08600473
REMARK SMILES C#Cc1cccc(Nc2ncnc3cc(OCCOC)c(OCCOC)cc23)c1
REMARK SMILES IDX 9 1 10 2 11 3 12 4 13 5 14 6 15 7 21 8 27 9 28 10 8 11 7 13
REMARK SMILES IDX 2 14 3 15 4 16 29 17 5 18 6 19 1 20 22 21 23 22 24 23 25 24
REMARK SMILES IDX 26 25 16 26 17 27 18 28 19 29 20 30
REMARK H PARENT 8 12
ROOT
ATOM      1  C   UNL     1     -20.455   3.565 -14.669  1.00  0.00     0.141 A 
ATOM      2  N   UNL     1     -21.322   4.520 -14.287  1.00  0.00    -0.219 NA
ATOM      3  C   UNL     1     -22.452   4.114 -13.705  1.00  0.00     0.224 A 
ATOM      4  N   UNL     1     -22.804   2.848 -13.466  1.00  0.00    -0.236 NA
ATOM      5  C   UNL     1     -21.933   1.904 -13.830  1.00  0.00     0.080 A 
ATOM      6  C   UNL     1     -22.262   0.578 -13.590  1.00  0.00     0.079 A 
ATOM      7  C   UNL     1     -21.392  -0.464 -13.923  1.00  0.00     0.163 A 
ATOM      8  C   UNL     1     -20.169  -0.197 -14.544  1.00  0.00     0.162 A 
ATOM      9  C   UNL     1     -19.826   1.133 -14.788  1.00  0.00     0.064 A 
ATOM     10  C   UNL     1     -20.708   2.195 -14.445  1.00  0.00     0.047 A 
ENDROOT
BRANCH   1  11
ATOM     11  N   UNL     1     -19.260   3.939 -15.346  1.00  0.00    -0.340 N 
ATOM     12  H   UNL     1     -19.257   4.947 -15.457  1.00  0.00     0.168 HD
BRANCH  11  13
ATOM     13  C   UNL     1     -17.947   3.447 -15.147  1.00  0.00     0.041 A 
ATOM     14  C   UNL     1     -16.007   1.137 -12.932  1.00  0.00    -0.070 C 
ATOM     15  C   UNL     1     -16.324   2.037 -13.998  1.00  0.00     0.026 A 
ATOM     16  C   UNL     1     -15.343   2.386 -14.928  1.00  0.00     0.017 A 
ATOM     17  C   UNL     1     -17.619   2.556 -14.116  1.00  0.00     0.043 A 
ATOM     18  C   UNL     1     -15.661   3.241 -15.981  1.00  0.00     0.003 A 
ATOM     19  C   UNL     1     -16.955   3.755 -16.095  1.00  0.00     0.026 A 
ATOM     20  C   UNL     1     -15.742   0.376 -12.042  1.00  0.00     0.010 C 
ENDBRANCH  11  13
ENDBRANCH   1  11
BRANCH   8  21
ATOM     21  O   UNL     1     -19.388  -1.281 -14.843  1.00  0.00    -0.487 OA
BRANCH  21  22
ATOM     22  C   UNL     1     -18.360  -1.110 -15.824  1.00  0.00     0.258 C 
BRANCH  22  23
ATOM     23  C   UNL     1     -17.002  -1.297 -15.147  1.00  0.00     0.201 C 
BRANCH  23  24
ATOM     24  O   UNL     1     -16.836  -2.672 -14.785  1.00  0.00    -0.381 OA
ATOM     25  C   UNL     1     -15.617  -2.883 -14.082  1.00  0.00     0.195 C 
ENDBRANCH  23  24
ENDBRANCH  22  23
ENDBRANCH  21  22
ENDBRANCH   8  21
BRANCH   7  26
ATOM     26  O   UNL     1     -21.762  -1.771 -13.734  1.00  0.00    -0.487 OA
BRANCH  26  27
ATOM     27  C   UNL     1     -23.173  -1.935 -13.531  1.00  0.00     0.258 C 
BRANCH  27  28
ATOM     28  C   UNL     1     -23.469  -1.894 -12.032  1.00  0.00     0.201 C 
BRANCH  28  29
ATOM     29  O   UNL     1     -24.659  -1.162 -11.732  1.00  0.00    -0.381 OA
ATOM     30  C   UNL     1     -25.046  -1.259 -10.365  1.00  0.00     0.195 C 
ENDBRANCH  28  29
ENDBRANCH  27  28
ENDBRANCH  26  27
ENDBRANCH   7  26
TORSDOF 10
ENDMDL
MODEL 5
REMARK minimizedAffinity -5.28958654
REMARK CNNscore 0.514552593
REMARK CNNaffinity 6.87857819
REMARK SMILES C#Cc1cccc(Nc2ncnc3cc(OCCOC)c(OCCOC)cc23)c1
REMARK SMILES IDX 9 1 10 2 11 3 12 4 13 5 14 6 15 7 21 8 27 9 28 10 8 11 7 13
REMARK SMILES IDX 2 14 3 15 4 16 29 17 5 18 6 19 1 20 22 21 23 22 24 23 25 24
REMARK SMILES IDX 26 25 16 26 17 27 18 28 19 29 20 30
REMARK H PARENT 8 12
ROOT
ATOM      1  C   UNL     1     -24.894  -1.614 -11.364  1.00  0.00     0.141 A 
ATOM      2  N   UNL     1     -24.847  -2.959 -11.396  1.00  0.00    -0.219 NA
ATOM      3  C   UNL     1     -23.894  -3.514 -12.147  1.00  0.00     0.224 A 
ATOM      4  N   UNL     1     -22.982  -2.860 -12.872  1.00  0.00    -0.236 NA
ATOM      5  C   UNL     1     -23.020  -1.526 -12.823  1.00  0.00     0.080 A 
ATOM      6  C   UNL     1     -22.083  -0.815 -13.557  1.00  0.00     0.079 A 
ATOM      7  C   UNL     1     -22.046   0.583 -13.539  1.00  0.00     0.163 A 
ATOM      8  C   UNL     1     -22.984   1.308 -12.800  1.00  0.00     0.162 A 
ATOM      9  C   UNL     1     -23.930   0.603 -12.055  1.00  0.00     0.064 A 
ATOM     10  C   UNL     1     -23.966  -0.819 -12.068  1.00  0.00     0.047 A 
ENDROOT
BRANCH   1  11
ATOM     11  N   UNL     1     -25.925  -0.970 -10.624  1.00  0.00    -0.340 N 
ATOM     12  H   UNL     1     -26.560  -0.526 -11.279  1.00  0.00     0.168 HD
BRANCH  11  13
ATOM     13  C   UNL     1     -26.623  -1.448  -9.489  1.00  0.00     0.041 A 
ATOM     14  C   UNL     1     -27.164  -0.682  -5.866  1.00  0.00    -0.070 C 
ATOM     15  C   UNL     1     -27.288  -1.305  -7.148  1.00  0.00     0.026 A 
ATOM     16  C   UNL     1     -28.181  -2.363  -7.323  1.00  0.00     0.017 A 
ATOM     17  C   UNL     1     -26.524  -0.845  -8.228  1.00  0.00     0.043 A 
ATOM     18  C   UNL     1     -28.320  -2.950  -8.579  1.00  0.00     0.003 A 
ATOM     19  C   UNL     1     -27.557  -2.486  -9.653  1.00  0.00     0.026 A 
ATOM     20  C   UNL     1     -27.066  -0.155  -4.791  1.00  0.00     0.010 C 
ENDBRANCH  11  13
ENDBRANCH   1  11
BRANCH   8  21
ATOM     21  O   UNL     1     -22.877   2.672 -12.851  1.00  0.00    -0.487 OA
BRANCH  21  22
ATOM     22  C   UNL     1     -22.637   3.272 -14.128  1.00  0.00     0.258 C 
BRANCH  22  23
ATOM     23  C   UNL     1     -21.385   4.145 -14.031  1.00  0.00     0.201 C 
BRANCH  23  24
ATOM     24  O   UNL     1     -20.722   4.169 -15.299  1.00  0.00    -0.381 OA
ATOM     25  C   UNL     1     -19.308   4.135 -15.150  1.00  0.00     0.195 C 
ENDBRANCH  23  24
ENDBRANCH  22  23
ENDBRANCH  21  22
ENDBRANCH   8  21
BRANCH   7  26
ATOM     26  O   UNL     1     -21.151   1.268 -14.320  1.00  0.00    -0.487 OA
BRANCH  26  27
ATOM     27  C   UNL     1     -19.783   0.970 -14.007  1.00  0.00     0.258 C 
BRANCH  27  28
ATOM     28  C   UNL     1     -19.042   0.615 -15.296  1.00  0.00     0.201 C 
BRANCH  28  29
ATOM     29  O   UNL     1     -17.626   0.556 -15.112  1.00  0.00    -0.381 OA
ATOM     30  C   UNL     1     -17.103  -0.763 -15.223  1.00  0.00     0.195 C 
ENDBRANCH  28  29
ENDBRANCH  27  28
ENDBRANCH  26  27
ENDBRANCH   7  26
TORSDOF 10
ENDMDL
MODEL 6
REMARK minimizedAffinity -3.42247868
REMARK CNNscore 0.46240437
REMARK CNNaffinity 6.28776932
REMARK SMILES C#Cc1cccc(Nc2ncnc3cc(OCCOC)c(OCCOC)cc23)c1
REMARK SMILES IDX 9 1 10 2 11 3 12 4 13 5 14 6 15 7 21 8 27 9 28 10 8 11 7 13
REMARK SMILES IDX 2 14 3 15 4 16 29 17 5 18 6 19 1 20 22 21 23 22 24 23 25 24
REMARK SMILES IDX 26 25 16 26 17 27 18 28 19 29 20 30
REMARK H PARENT 8 12
ROOT
ATOM      1  C   UNL     1     -18.889   2.982 -14.607  1.00  0.00     0.141 A 
ATOM      2  N   UNL     1     -20.162   3.327 -14.341  1.00  0.00    -0.219 NA
ATOM      3  C   UNL     1     -21.078   2.360 -14.413  1.00  0.00     0.224 A 
ATOM      4  N   UNL     1     -20.851   1.081 -14.724  1.00  0.00    -0.236 NA
ATOM      5  C   UNL     1     -19.584   0.738 -14.969  1.00  0.00     0.080 A 
ATOM      6  C   UNL     1     -19.310  -0.583 -15.288  1.00  0.00     0.079 A 
ATOM      7  C   UNL     1     -18.005  -1.021 -15.536  1.00  0.00     0.163 A 
ATOM      8  C   UNL     1     -16.936  -0.122 -15.502  1.00  0.00     0.162 A 
ATOM      9  C   UNL     1     -17.199   1.209 -15.179  1.00  0.00     0.064 A 
ATOM     10  C   UNL     1     -18.525   1.656 -14.921  1.00  0.00     0.047 A 
ENDROOT
BRANCH   1  11
ATOM     11  N   UNL     1     -17.878   3.985 -14.600  1.00  0.00    -0.340 N 
ATOM     12  H   UNL     1     -17.778   4.331 -13.651  1.00  0.00     0.168 HD
BRANCH  11  13
ATOM     13  C   UNL     1     -16.633   3.983 -15.273  1.00  0.00     0.041 A 
ATOM     14  C   UNL     1     -13.371   2.150 -15.355  1.00  0.00    -0.070 C 
ATOM     15  C   UNL     1     -14.414   3.067 -15.698  1.00  0.00     0.026 A 
ATOM     16  C   UNL     1     -14.248   3.935 -16.779  1.00  0.00     0.017 A 
ATOM     17  C   UNL     1     -15.604   3.085 -14.959  1.00  0.00     0.043 A 
ATOM     18  C   UNL     1     -15.276   4.808 -17.128  1.00  0.00     0.003 A 
ATOM     19  C   UNL     1     -16.462   4.820 -16.389  1.00  0.00     0.026 A 
ATOM     20  C   UNL     1     -12.498   1.375 -15.072  1.00  0.00     0.010 C 
ENDBRANCH  11  13
ENDBRANCH   1  11
BRANCH   8  21
ATOM     21  O   UNL     1     -15.697  -0.640 -15.768  1.00  0.00    -0.487 OA
BRANCH  21  22
ATOM     22  C   UNL     1     -14.768  -0.731 -14.684  1.00  0.00     0.258 C 
BRANCH  22  23
ATOM     23  C   UNL     1     -13.734  -1.807 -15.014  1.00  0.00     0.201 C 
BRANCH  23  24
ATOM     24  O   UNL     1     -13.055  -2.199 -13.816  1.00  0.00    -0.381 OA
ATOM     25  C   UNL     1     -11.711  -1.733 -13.801  1.00  0.00     0.195 C 
ENDBRANCH  23  24
ENDBRANCH  22  23
ENDBRANCH  21  22
ENDBRANCH   8  21
BRANCH   7  26
ATOM     26  O   UNL     1     -17.763  -2.319 -15.910  1.00  0.00    -0.487 OA
BRANCH  26  27
ATOM     27  C   UNL     1     -17.983  -3.262 -14.853  1.00  0.00     0.258 C 
BRANCH  27  28
ATOM     28  C   UNL     1     -16.658  -3.943 -14.509  1.00  0.00     0.201 C 
BRANCH  28  29
ATOM     29  O   UNL     1     -16.179  -3.580 -13.212  1.00  0.00    -0.381 OA
ATOM     30  C   UNL     1     -15.738  -4.696 -12.446  1.00  0.00     0.195 C 
ENDBRANCH  28  29
ENDBRANCH  27  28
ENDBRANCH  26  27
ENDBRANCH   7  26
TORSDOF 10
ENDMDL
MODEL 7
REMARK minimizedAffinity -8.08392715
REMARK CNNscore 0.392686516
REMARK CNNaffinity 6.7538619
REMARK SMILES C#Cc1cccc(Nc2ncnc3cc(OCCOC)c(OCCOC)cc23)c1
REMARK SMILES IDX 9 1 10 2 11 3 12 4 13 5 14 6 15 7 21 8 27 9 28 10 8 11 7 13
REMARK SMILES IDX 2 14 3 15 4 16 29 17 5 18 6 19 1 20 22 21 23 22 24 23 25 24
REMARK SMILES IDX 26 25 16 26 17 27 18 28 19 29 20 30
REMARK H PARENT 8 12
ROOT
ATOM      1  C   UNL     1     -27.525  -1.786  -8.449  1.00  0.00     0.141 A 
ATOM      2  N   UNL     1     -27.057  -0.623  -7.963  1.00  0.00    -0.219 NA
ATOM      3  C   UNL     1     -26.963  -0.514  -6.636  1.00  0.00     0.224 A 
ATOM      4  N   UNL     1     -27.292  -1.453  -5.744  1.00  0.00    -0.236 NA
ATOM      5  C   UNL     1     -27.739  -2.614  -6.231  1.00  0.00     0.080 A 
ATOM      6  C   UNL     1     -28.082  -3.614  -5.334  1.00  0.00     0.079 A 
ATOM      7  C   UNL     1     -28.537  -4.863  -5.769  1.00  0.00     0.163 A 
ATOM      8  C   UNL     1     -28.691  -5.127  -7.132  1.00  0.00     0.162 A 
ATOM      9  C   UNL     1     -28.346  -4.129  -8.044  1.00  0.00     0.064 A 
ATOM     10  C   UNL     1     -27.878  -2.859  -7.604  1.00  0.00     0.047 A 
ENDROOT
BRANCH   1  11
ATOM     11  N   UNL     1     -27.698  -1.936  -9.854  1.00  0.00    -0.340 N 
ATOM     12  H   UNL     1     -28.662  -1.718 -10.083  1.00  0.00     0.168 HD
BRANCH  11  13
ATOM     13  C   UNL     1     -26.827  -1.533 -10.895  1.00  0.00     0.041 A 
ATOM     14  C   UNL     1     -23.217  -0.798 -11.551  1.00  0.00    -0.070 C 
ATOM     15  C   UNL     1     -24.615  -1.007 -11.773  1.00  0.00     0.026 A 
ATOM     16  C   UNL     1     -25.138  -0.897 -13.062  1.00  0.00     0.017 A 
ATOM     17  C   UNL     1     -25.454  -1.335 -10.700  1.00  0.00     0.043 A 
ATOM     18  C   UNL     1     -26.494  -1.128 -13.281  1.00  0.00     0.003 A 
ATOM     19  C   UNL     1     -27.326  -1.457 -12.207  1.00  0.00     0.026 A 
ATOM     20  C   UNL     1     -22.042  -0.629 -11.366  1.00  0.00     0.010 C 
ENDBRANCH  11  13
ENDBRANCH   1  11
BRANCH   8  21
ATOM     21  O   UNL     1     -29.152  -6.373  -7.463  1.00  0.00    -0.487 OA
BRANCH  21  22
ATOM     22  C   UNL     1     -28.194  -7.340  -7.905  1.00  0.00     0.258 C 
BRANCH  22  23
ATOM     23  C   UNL     1     -26.996  -6.603  -8.504  1.00  0.00     0.201 C 
BRANCH  23  24
ATOM     24  O   UNL     1     -26.239  -7.507  -9.316  1.00  0.00    -0.381 OA
ATOM     25  C   UNL     1     -26.690  -8.847  -9.164  1.00  0.00     0.195 C 
ENDBRANCH  23  24
ENDBRANCH  22  23
ENDBRANCH  21  22
ENDBRANCH   8  21
BRANCH   7  26
ATOM     26  O   UNL     1     -28.929  -5.817  -4.865  1.00  0.00    -0.487 OA
BRANCH  26  27
ATOM     27  C   UNL     1     -30.251  -5.601  -4.352  1.00  0.00     0.258 C 
BRANCH  27  28
ATOM     28  C   UNL     1     -30.155  -5.190  -2.882  1.00  0.00     0.201 C 
BRANCH  28  29
ATOM     29  O   UNL     1     -30.314  -3.782  -2.699  1.00  0.00    -0.381 OA
ATOM     30  C   UNL     1     -29.310  -3.210  -1.867  1.00  0.00     0.195 C 
ENDBRANCH  28  29
ENDBRANCH  27  28
ENDBRANCH  26  27
ENDBRANCH   7  26
TORSDOF 10
ENDMDL
MODEL 8
REMARK minimizedAffinity -1.04031146
REMARK CNNscore 0.337508261
REMARK CNNaffinity 6.39748907
REMARK SMILES C#Cc1cccc(Nc2ncnc3cc(OCCOC)c(OCCOC)cc23)c1
REMARK SMILES IDX 9 1 10 2 11 3 12 4 13 5 14 6 15 7 21 8 27 9 28 10 8 11 7 13
REMARK SMILES IDX 2 14 3 15 4 16 29 17 5 18 6 19 1 20 22 21 23 22 24 23 25 24
REMARK SMILES IDX 26 25 16 26 17 27 18 28 19 29 20 30
REMARK H PARENT 8 12
ROOT
ATOM      1  C   UNL     1     -26.451  -1.694  -9.052  1.00  0.00     0.141 A 
ATOM      2  N   UNL     1     -26.814  -2.946  -8.719  1.00  0.00    -0.219 NA
ATOM      3  C   UNL     1     -26.585  -3.903  -9.620  1.00  0.00     0.224 A 
ATOM      4  N   UNL     1     -26.028  -3.735 -10.823  1.00  0.00    -0.236 NA
ATOM      5  C   UNL     1     -25.652  -2.495 -11.143  1.00  0.00     0.080 A 
ATOM      6  C   UNL     1     -25.064  -2.284 -12.381  1.00  0.00     0.079 A 
ATOM      7  C   UNL     1     -24.625  -1.017 -12.777  1.00  0.00     0.163 A 
ATOM      8  C   UNL     1     -24.800   0.088 -11.941  1.00  0.00     0.162 A 
ATOM      9  C   UNL     1     -25.387  -0.111 -10.692  1.00  0.00     0.064 A 
ATOM     10  C   UNL     1     -25.830  -1.401 -10.285  1.00  0.00     0.047 A 
ENDROOT
BRANCH   1  11
ATOM     11  N   UNL     1     -26.723  -0.626  -8.151  1.00  0.00    -0.340 N 
ATOM     12  H   UNL     1     -27.104   0.151  -8.682  1.00  0.00     0.168 HD
BRANCH  11  13
ATOM     13  C   UNL     1     -27.303  -0.690  -6.861  1.00  0.00     0.041 A 
ATOM     14  C   UNL     1     -29.554  -2.840  -4.784  1.00  0.00    -0.070 C 
ATOM     15  C   UNL     1     -28.662  -1.787  -5.160  1.00  0.00     0.026 A 
ATOM     16  C   UNL     1     -28.276  -0.833  -4.218  1.00  0.00     0.017 A 
ATOM     17  C   UNL     1     -28.168  -1.720  -6.470  1.00  0.00     0.043 A 
ATOM     18  C   UNL     1     -27.386   0.177  -4.579  1.00  0.00     0.003 A 
ATOM     19  C   UNL     1     -26.895   0.237  -5.886  1.00  0.00     0.026 A 
ATOM     20  C   UNL     1     -30.296  -3.729  -4.464  1.00  0.00     0.010 C 
ENDBRANCH  11  13
ENDBRANCH   1  11
BRANCH   8  21
ATOM     21  O   UNL     1     -24.348   1.289 -12.418  1.00  0.00    -0.487 OA
BRANCH  21  22
ATOM     22  C   UNL     1     -23.436   2.029 -11.600  1.00  0.00     0.258 C 
BRANCH  22  23
ATOM     23  C   UNL     1     -23.105   3.346 -12.303  1.00  0.00     0.201 C 
BRANCH  23  24
ATOM     24  O   UNL     1     -22.851   3.095 -13.689  1.00  0.00    -0.381 OA
ATOM     25  C   UNL     1     -21.673   3.759 -14.132  1.00  0.00     0.195 C 
ENDBRANCH  23  24
ENDBRANCH  22  23
ENDBRANCH  21  22
ENDBRANCH   8  21
BRANCH   7  26
ATOM     26  O   UNL     1     -24.102  -0.820 -14.030  1.00  0.00    -0.487 OA
BRANCH  26  27
ATOM     27  C   UNL     1     -23.121   0.226 -14.075  1.00  0.00     0.258 C 
BRANCH  27  28
ATOM     28  C   UNL     1     -21.744  -0.369 -13.777  1.00  0.00     0.201 C 
BRANCH  28  29
ATOM     29  O   UNL     1     -20.734   0.633 -13.646  1.00  0.00    -0.381 OA
ATOM     30  C   UNL     1     -19.784   0.612 -14.705  1.00  0.00     0.195 C 
ENDBRANCH  28  29
ENDBRANCH  27  28
ENDBRANCH  26  27
ENDBRANCH   7  26
TORSDOF 10
ENDMDL
MODEL 9
REMARK minimizedAffinity -6.49496555
REMARK CNNscore 0.31912902
REMARK CNNaffinity 6.61645746
REMARK SMILES C#Cc1cccc(Nc2ncnc3cc(OCCOC)c(OCCOC)cc23)c1
REMARK SMILES IDX 9 1 10 2 11 3 12 4 13 5 14 6 15 7 21 8 27 9 28 10 8 11 7 13
REMARK SMILES IDX 2 14 3 15 4 16 29 17 5 18 6 19 1 20 22 21 23 22 24 23 25 24
REMARK SMILES IDX 26 25 16 26 17 27 18 28 19 29 20 30
REMARK H PARENT 8 12
ROOT
ATOM      1  C   UNL     1     -19.217   1.542 -15.127  1.00  0.00     0.141 A 
ATOM      2  N   UNL     1     -19.666   2.790 -15.351  1.00  0.00    -0.219 NA
ATOM      3  C   UNL     1     -18.749   3.731 -15.580  1.00  0.00     0.224 A 
ATOM      4  N   UNL     1     -17.425   3.551 -15.608  1.00  0.00    -0.236 NA
ATOM      5  C   UNL     1     -16.984   2.308 -15.404  1.00  0.00     0.080 A 
ATOM      6  C   UNL     1     -15.616   2.082 -15.434  1.00  0.00     0.079 A 
ATOM      7  C   UNL     1     -15.081   0.803 -15.250  1.00  0.00     0.163 A 
ATOM      8  C   UNL     1     -15.917  -0.286 -14.996  1.00  0.00     0.162 A 
ATOM      9  C   UNL     1     -17.295  -0.073 -14.967  1.00  0.00     0.064 A 
ATOM     10  C   UNL     1     -17.842   1.227 -15.159  1.00  0.00     0.047 A 
ENDROOT
BRANCH   1  11
ATOM     11  N   UNL     1     -20.149   0.509 -14.822  1.00  0.00    -0.340 N 
ATOM     12  H   UNL     1     -19.630  -0.317 -14.541  1.00  0.00     0.168 HD
BRANCH  11  13
ATOM     13  C   UNL     1     -21.368   0.608 -14.109  1.00  0.00     0.041 A 
ATOM     14  C   UNL     1     -23.817  -1.499 -12.221  1.00  0.00    -0.070 C 
ATOM     15  C   UNL     1     -23.174  -0.351 -12.782  1.00  0.00     0.026 A 
ATOM     16  C   UNL     1     -23.704   0.921 -12.559  1.00  0.00     0.017 A 
ATOM     17  C   UNL     1     -22.007  -0.502 -13.542  1.00  0.00     0.043 A 
ATOM     18  C   UNL     1     -23.060   2.040 -13.083  1.00  0.00     0.003 A 
ATOM     19  C   UNL     1     -21.896   1.883 -13.839  1.00  0.00     0.026 A 
ATOM     20  C   UNL     1     -24.354  -2.462 -11.744  1.00  0.00     0.010 C 
ENDBRANCH  11  13
ENDBRANCH   1  11
BRANCH   8  21
ATOM     21  O   UNL     1     -15.302  -1.497 -14.820  1.00  0.00    -0.487 OA
BRANCH  21  22
ATOM     22  C   UNL     1     -15.337  -2.076 -13.512  1.00  0.00     0.258 C 
BRANCH  22  23
ATOM     23  C   UNL     1     -14.083  -2.929 -13.321  1.00  0.00     0.201 C 
BRANCH  23  24
ATOM     24  O   UNL     1     -13.070  -2.498 -14.235  1.00  0.00    -0.381 OA
ATOM     25  C   UNL     1     -11.769  -2.845 -13.775  1.00  0.00     0.195 C 
ENDBRANCH  23  24
ENDBRANCH  22  23
ENDBRANCH  21  22
ENDBRANCH   8  21
BRANCH   7  26
ATOM     26  O   UNL     1     -13.722   0.612 -15.222  1.00  0.00    -0.487 OA
BRANCH  26  27
ATOM     27  C   UNL     1     -13.014   1.682 -14.581  1.00  0.00     0.258 C 
BRANCH  27  28
ATOM     28  C   UNL     1     -11.911   2.181 -15.515  1.00  0.00     0.201 C 
BRANCH  28  29
ATOM     29  O   UNL     1     -11.827   3.607 -15.547  1.00  0.00    -0.381 OA
ATOM     30  C   UNL     1     -12.649   4.237 -14.570  1.00  0.00     0.195 C 
ENDBRANCH  28  29
ENDBRANCH  27  28
ENDBRANCH  26  27
ENDBRANCH   7  26
TORSDOF 10
ENDMDL
