MODEL 1
REMARK minimizedAffinity -7.69871044
REMARK CNNscore 0.780658782
REMARK CNNaffinity 6.35978079
REMARK SMILES C#Cc1cn(C2CCCC2)c2ncnc(N)c12
REMARK SMILES IDX 1 1 2 2 3 3 4 4 5 5 11 6 12 7 13 8 14 9 15 10 17 11 6 12
REMARK SMILES IDX 7 13 10 14 8 15 9 16 16 17
REMARK H PARENT 16 18 16 19
ROOT
ATOM      1  C   UNL     1     -17.475   0.404 -15.407  1.00  0.00     0.010 C 
ATOM      2  C   UNL     1     -18.596   0.579 -15.016  1.00  0.00    -0.068 C 
ATOM      3  C   UNL     1     -19.928   0.784 -14.549  1.00  0.00     0.055 A 
ATOM      4  C   UNL     1     -20.764  -0.233 -14.141  1.00  0.00     0.106 A 
ATOM      5  N   UNL     1     -21.958   0.329 -13.759  1.00  0.00    -0.328 N 
ATOM      6  C   UNL     1     -21.889   1.694 -13.914  1.00  0.00     0.147 A 
ATOM      7  N   UNL     1     -22.877   2.561 -13.631  1.00  0.00    -0.218 NA
ATOM      8  C   UNL     1     -22.514   3.828 -13.887  1.00  0.00     0.226 A 
ATOM      9  N   UNL     1     -21.340   4.275 -14.371  1.00  0.00    -0.219 NA
ATOM     10  C   UNL     1     -20.372   3.375 -14.634  1.00  0.00     0.137 A 
ATOM     11  C   UNL     1     -20.630   2.014 -14.409  1.00  0.00     0.077 A 
ENDROOT
BRANCH   5  12
ATOM     12  C   UNL     1     -23.116  -0.392 -13.253  1.00  0.00     0.089 C 
ATOM     13  C   UNL     1     -22.796  -1.810 -12.742  1.00  0.00     0.025 C 
ATOM     14  C   UNL     1     -23.805   0.335 -12.087  1.00  0.00     0.025 C 
ATOM     15  C   UNL     1     -23.077  -1.773 -11.245  1.00  0.00     0.002 C 
ATOM     16  C   UNL     1     -24.209  -0.768 -11.120  1.00  0.00     0.002 C 
ENDBRANCH   5  12
BRANCH  10  17
ATOM     17  N   UNL     1     -19.177   3.872 -15.132  1.00  0.00    -0.383 N 
ATOM     18  H   UNL     1     -19.296   4.811 -15.492  1.00  0.00     0.158 HD
ATOM     19  H   UNL     1     -18.650   3.227 -15.705  1.00  0.00     0.158 HD
ENDBRANCH  10  17
TORSDOF 2
ENDMDL
MODEL 2
REMARK minimizedAffinity -6.8354702
REMARK CNNscore 0.668692887
REMARK CNNaffinity 6.15084696
REMARK SMILES C#Cc1cn(C2CCCC2)c2ncnc(N)c12
REMARK SMILES IDX 1 1 2 2 3 3 4 4 5 5 11 6 12 7 13 8 14 9 15 10 17 11 6 12
REMARK SMILES IDX 7 13 10 14 8 15 9 16 16 17
REMARK H PARENT 16 18 16 19
ROOT
ATOM      1  C   UNL     1     -23.132  -0.043 -13.428  1.00  0.00     0.010 C 
ATOM      2  C   UNL     1     -22.050   0.306 -13.810  1.00  0.00    -0.068 C 
ATOM      3  C   UNL     1     -20.763   0.719 -14.266  1.00  0.00     0.055 A 
ATOM      4  C   UNL     1     -19.717  -0.148 -14.498  1.00  0.00     0.106 A 
ATOM      5  N   UNL     1     -18.642   0.593 -14.926  1.00  0.00    -0.328 N 
ATOM      6  C   UNL     1     -18.994   1.922 -14.973  1.00  0.00     0.147 A 
ATOM      7  N   UNL     1     -18.188   2.928 -15.354  1.00  0.00    -0.218 NA
ATOM      8  C   UNL     1     -18.813   4.114 -15.296  1.00  0.00     0.226 A 
ATOM      9  N   UNL     1     -20.079   4.369 -14.913  1.00  0.00    -0.219 NA
ATOM     10  C   UNL     1     -20.858   3.332 -14.548  1.00  0.00     0.137 A 
ATOM     11  C   UNL     1     -20.318   2.037 -14.564  1.00  0.00     0.077 A 
ENDROOT
BRANCH   5  12
ATOM     12  C   UNL     1     -17.335   0.066 -15.289  1.00  0.00     0.089 C 
ATOM     13  C   UNL     1     -16.196   0.518 -14.355  1.00  0.00     0.025 C 
ATOM     14  C   UNL     1     -17.295  -1.471 -15.296  1.00  0.00     0.025 C 
ATOM     15  C   UNL     1     -15.708  -0.752 -13.669  1.00  0.00     0.002 C 
ATOM     16  C   UNL     1     -15.937  -1.831 -14.713  1.00  0.00     0.002 C 
ENDBRANCH   5  12
BRANCH  10  17
ATOM     17  N   UNL     1     -22.155   3.632 -14.161  1.00  0.00    -0.383 N 
ATOM     18  H   UNL     1     -22.249   4.616 -13.939  1.00  0.00     0.158 HD
ATOM     19  H   UNL     1     -22.572   2.977 -13.514  1.00  0.00     0.158 HD
ENDBRANCH  10  17
TORSDOF 2
ENDMDL
MODEL 3
REMARK minimizedAffinity -7.36498976
REMARK CNNscore 0.278120995
REMARK CNNaffinity 5.32512474
REMARK SMILES C#Cc1cn(C2CCCC2)c2ncnc(N)c12
REMARK SMILES IDX 1 1 2 2 3 3 4 4 5 5 11 6 12 7 13 8 14 9 15 10 17 11 6 12
REMARK SMILES IDX 7 13 10 14 8 15 9 16 16 17
REMARK H PARENT 16 18 16 19
ROOT
ATOM      1  C   UNL     1     -27.884  -6.839  -8.229  1.00  0.00     0.010 C 
ATOM      2  C   UNL     1     -28.056  -5.823  -7.614  1.00  0.00    -0.068 C 
ATOM      3  C   UNL     1     -28.261  -4.617  -6.881  1.00  0.00     0.055 A 
ATOM      4  C   UNL     1     -28.900  -4.560  -5.661  1.00  0.00     0.106 A 
ATOM      5  N   UNL     1     -28.915  -3.247  -5.253  1.00  0.00    -0.328 N 
ATOM      6  C   UNL     1     -28.288  -2.469  -6.199  1.00  0.00     0.147 A 
ATOM      7  N   UNL     1     -28.116  -1.138  -6.123  1.00  0.00    -0.218 NA
ATOM      8  C   UNL     1     -27.470  -0.659  -7.197  1.00  0.00     0.226 A 
ATOM      9  N   UNL     1     -27.017  -1.339  -8.267  1.00  0.00    -0.219 NA
ATOM     10  C   UNL     1     -27.200  -2.674  -8.301  1.00  0.00     0.137 A 
ATOM     11  C   UNL     1     -27.867  -3.296  -7.234  1.00  0.00     0.077 A 
ENDROOT
BRANCH   5  12
ATOM     12  C   UNL     1     -29.486  -2.748  -4.012  1.00  0.00     0.089 C 
ATOM     13  C   UNL     1     -30.563  -3.667  -3.404  1.00  0.00     0.025 C 
ATOM     14  C   UNL     1     -28.431  -2.544  -2.912  1.00  0.00     0.025 C 
ATOM     15  C   UNL     1     -29.979  -4.158  -2.086  1.00  0.00     0.002 C 
ATOM     16  C   UNL     1     -29.109  -3.000  -1.629  1.00  0.00     0.002 C 
ENDBRANCH   5  12
BRANCH  10  17
ATOM     17  N   UNL     1     -26.721  -3.341  -9.418  1.00  0.00    -0.383 N 
ATOM     18  H   UNL     1     -26.549  -2.697 -10.180  1.00  0.00     0.158 HD
ATOM     19  H   UNL     1     -27.206  -4.198  -9.646  1.00  0.00     0.158 HD
ENDBRANCH  10  17
TORSDOF 2
ENDMDL
MODEL 4
REMARK minimizedAffinity -6.4906168
REMARK CNNscore 0.238587484
REMARK CNNaffinity 5.01630926
REMARK SMILES C#Cc1cn(C2CCCC2)c2ncnc(N)c12
REMARK SMILES IDX 1 1 2 2 3 3 4 4 5 5 11 6 12 7 13 8 14 9 15 10 17 11 6 12
REMARK SMILES IDX 7 13 10 14 8 15 9 16 16 17
REMARK H PARENT 16 18 16 19
ROOT
ATOM      1  C   UNL     1     -27.520  -2.016  -9.278  1.00  0.00     0.010 C 
ATOM      2  C   UNL     1     -26.781  -1.599 -10.125  1.00  0.00    -0.068 C 
ATOM      3  C   UNL     1     -25.899  -1.103 -11.131  1.00  0.00     0.055 A 
ATOM      4  C   UNL     1     -24.682  -0.515 -10.863  1.00  0.00     0.106 A 
ATOM      5  N   UNL     1     -24.109  -0.163 -12.061  1.00  0.00    -0.328 N 
ATOM      6  C   UNL     1     -24.947  -0.526 -13.091  1.00  0.00     0.147 A 
ATOM      7  N   UNL     1     -24.701  -0.338 -14.399  1.00  0.00    -0.218 NA
ATOM      8  C   UNL     1     -25.704  -0.796 -15.164  1.00  0.00     0.226 A 
ATOM      9  N   UNL     1     -26.852  -1.378 -14.768  1.00  0.00    -0.219 NA
ATOM     10  C   UNL     1     -27.057  -1.557 -13.448  1.00  0.00     0.137 A 
ATOM     11  C   UNL     1     -26.080  -1.117 -12.543  1.00  0.00     0.077 A 
ENDROOT
BRANCH   5  12
ATOM     12  C   UNL     1     -22.815   0.479 -12.231  1.00  0.00     0.089 C 
ATOM     13  C   UNL     1     -21.743  -0.430 -12.863  1.00  0.00     0.025 C 
ATOM     14  C   UNL     1     -22.886   1.733 -13.119  1.00  0.00     0.025 C 
ATOM     15  C   UNL     1     -21.418   0.203 -14.210  1.00  0.00     0.002 C 
ATOM     16  C   UNL     1     -21.620   1.688 -13.963  1.00  0.00     0.002 C 
ENDBRANCH   5  12
BRANCH  10  17
ATOM     17  N   UNL     1     -28.250  -2.160 -13.079  1.00  0.00    -0.383 N 
ATOM     18  H   UNL     1     -28.923  -2.126 -13.835  1.00  0.00     0.158 HD
ATOM     19  H   UNL     1     -28.587  -1.914 -12.157  1.00  0.00     0.158 HD
ENDBRANCH  10  17
TORSDOF 2
ENDMDL
MODEL 5
REMARK minimizedAffinity -6.21249819
REMARK CNNscore 0.208919749
REMARK CNNaffinity 5.25197363
REMARK SMILES C#Cc1cn(C2CCCC2)c2ncnc(N)c12
REMARK SMILES IDX 1 1 2 2 3 3 4 4 5 5 11 6 12 7 13 8 14 9 15 10 17 11 6 12
REMARK SMILES IDX 7 13 10 14 8 15 9 16 16 17
REMARK H PARENT 16 18 16 19
ROOT
ATOM      1  C   UNL     1     -27.637   0.211  -4.489  1.00  0.00     0.010 C 
ATOM      2  C   UNL     1     -27.524  -0.511  -5.441  1.00  0.00    -0.068 C 
ATOM      3  C   UNL     1     -27.387  -1.368  -6.573  1.00  0.00     0.055 A 
ATOM      4  C   UNL     1     -26.896  -0.954  -7.793  1.00  0.00     0.106 A 
ATOM      5  N   UNL     1     -26.906  -2.036  -8.641  1.00  0.00    -0.328 N 
ATOM      6  C   UNL     1     -27.393  -3.135  -7.972  1.00  0.00     0.147 A 
ATOM      7  N   UNL     1     -27.536  -4.365  -8.494  1.00  0.00    -0.218 NA
ATOM      8  C   UNL     1     -28.037  -5.230  -7.598  1.00  0.00     0.226 A 
ATOM      9  N   UNL     1     -28.389  -4.993  -6.321  1.00  0.00    -0.219 NA
ATOM     10  C   UNL     1     -28.222  -3.748  -5.831  1.00  0.00     0.137 A 
ATOM     11  C   UNL     1     -27.706  -2.751  -6.673  1.00  0.00     0.077 A 
ENDROOT
BRANCH   5  12
ATOM     12  C   UNL     1     -26.459  -2.037 -10.026  1.00  0.00     0.089 C 
ATOM     13  C   UNL     1     -27.464  -1.404 -11.008  1.00  0.00     0.025 C 
ATOM     14  C   UNL     1     -25.136  -1.280 -10.223  1.00  0.00     0.025 C 
ATOM     15  C   UNL     1     -26.771  -0.160 -11.548  1.00  0.00     0.002 C 
ATOM     16  C   UNL     1     -25.301  -0.540 -11.543  1.00  0.00     0.002 C 
ENDBRANCH   5  12
BRANCH  10  17
ATOM     17  N   UNL     1     -28.595  -3.542  -4.512  1.00  0.00    -0.383 N 
ATOM     18  H   UNL     1     -29.202  -4.284  -4.186  1.00  0.00     0.158 HD
ATOM     19  H   UNL     1     -28.872  -2.595  -4.288  1.00  0.00     0.158 HD
ENDBRANCH  10  17
TORSDOF 2
ENDMDL
MODEL 6
REMARK minimizedAffinity -6.33390093
REMARK CNNscore 0.193109721
REMARK CNNaffinity 5.3474946
REMARK SMILES C#Cc1cn(C2CCCC2)c2ncnc(N)c12
REMARK SMILES IDX 1 1 2 2 3 3 4 4 5 5 11 6 12 7 13 8 14 9 15 10 17 11 6 12
REMARK SMILES IDX 7 13 10 14 8 15 9 16 16 17
REMARK H PARENT 16 18 16 19
ROOT
ATOM      1  C   UNL     1     -27.432  -2.195  -9.695  1.00  0.00     0.010 C 
ATOM      2  C   UNL     1     -27.633  -2.438  -8.538  1.00  0.00    -0.068 C 
ATOM      3  C   UNL     1     -27.873  -2.728  -7.162  1.00  0.00     0.055 A 
ATOM      4  C   UNL     1     -28.345  -3.939  -6.704  1.00  0.00     0.106 A 
ATOM      5  N   UNL     1     -28.452  -3.862  -5.337  1.00  0.00    -0.328 N 
ATOM      6  C   UNL     1     -28.048  -2.615  -4.918  1.00  0.00     0.147 A 
ATOM      7  N   UNL     1     -28.018  -2.193  -3.642  1.00  0.00    -0.218 NA
ATOM      8  C   UNL     1     -27.577  -0.929  -3.547  1.00  0.00     0.226 A 
ATOM      9  N   UNL     1     -27.198  -0.104  -4.541  1.00  0.00    -0.219 NA
ATOM     10  C   UNL     1     -27.234  -0.567  -5.806  1.00  0.00     0.137 A 
ATOM     11  C   UNL     1     -27.679  -1.878  -6.038  1.00  0.00     0.077 A 
ENDROOT
BRANCH   5  12
ATOM     12  C   UNL     1     -28.905  -4.927  -4.456  1.00  0.00     0.089 C 
ATOM     13  C   UNL     1     -29.012  -4.512  -2.975  1.00  0.00     0.025 C 
ATOM     14  C   UNL     1     -30.290  -5.471  -4.846  1.00  0.00     0.025 C 
ATOM     15  C   UNL     1     -30.495  -4.594  -2.638  1.00  0.00     0.002 C 
ATOM     16  C   UNL     1     -31.000  -5.720  -3.523  1.00  0.00     0.002 C 
ENDBRANCH   5  12
BRANCH  10  17
ATOM     17  N   UNL     1     -26.836   0.311  -6.803  1.00  0.00    -0.383 N 
ATOM     18  H   UNL     1     -26.841   1.266  -6.469  1.00  0.00     0.158 HD
ATOM     19  H   UNL     1     -27.248   0.143  -7.711  1.00  0.00     0.158 HD
ENDBRANCH  10  17
TORSDOF 2
ENDMDL
MODEL 7
REMARK minimizedAffinity -6.73691607
REMARK CNNscore 0.178703174
REMARK CNNaffinity 5.11961317
REMARK SMILES C#Cc1cn(C2CCCC2)c2ncnc(N)c12
REMARK SMILES IDX 1 1 2 2 3 3 4 4 5 5 11 6 12 7 13 8 14 9 15 10 17 11 6 12
REMARK SMILES IDX 7 13 10 14 8 15 9 16 16 17
REMARK H PARENT 16 18 16 19
ROOT
ATOM      1  C   UNL     1     -30.143  -5.567  -7.093  1.00  0.00     0.010 C 
ATOM      2  C   UNL     1     -29.486  -4.579  -7.265  1.00  0.00    -0.068 C 
ATOM      3  C   UNL     1     -28.705  -3.403  -7.472  1.00  0.00     0.055 A 
ATOM      4  C   UNL     1     -28.261  -2.985  -8.707  1.00  0.00     0.106 A 
ATOM      5  N   UNL     1     -27.546  -1.825  -8.529  1.00  0.00    -0.328 N 
ATOM      6  C   UNL     1     -27.535  -1.497  -7.193  1.00  0.00     0.147 A 
ATOM      7  N   UNL     1     -26.933  -0.420  -6.659  1.00  0.00    -0.218 NA
ATOM      8  C   UNL     1     -27.095  -0.369  -5.328  1.00  0.00     0.226 A 
ATOM      9  N   UNL     1     -27.752  -1.238  -4.536  1.00  0.00    -0.219 NA
ATOM     10  C   UNL     1     -28.351  -2.300  -5.111  1.00  0.00     0.137 A 
ATOM     11  C   UNL     1     -28.252  -2.467  -6.501  1.00  0.00     0.077 A 
ENDROOT
BRANCH   5  12
ATOM     12  C   UNL     1     -26.909  -1.046  -9.580  1.00  0.00     0.089 C 
ATOM     13  C   UNL     1     -25.486  -1.519  -9.935  1.00  0.00     0.025 C 
ATOM     14  C   UNL     1     -27.704  -1.064 -10.897  1.00  0.00     0.025 C 
ATOM     15  C   UNL     1     -25.575  -2.026 -11.369  1.00  0.00     0.002 C 
ATOM     16  C   UNL     1     -26.650  -1.152 -11.990  1.00  0.00     0.002 C 
ENDBRANCH   5  12
BRANCH  10  17
ATOM     17  N   UNL     1     -29.018  -3.173  -4.265  1.00  0.00    -0.383 N 
ATOM     18  H   UNL     1     -28.725  -3.042  -3.304  1.00  0.00     0.158 HD
ATOM     19  H   UNL     1     -29.082  -4.126  -4.596  1.00  0.00     0.158 HD
ENDBRANCH  10  17
TORSDOF 2
ENDMDL
MODEL 8
REMARK minimizedAffinity -6.10002804
REMARK CNNscore 0.176371768
REMARK CNNaffinity 3.87870908
REMARK SMILES C#Cc1cn(C2CCCC2)c2ncnc(N)c12
REMARK SMILES IDX 1 1 2 2 3 3 4 4 5 5 11 6 12 7 13 8 14 9 15 10 17 11 6 12
REMARK SMILES IDX 7 13 10 14 8 15 9 16 16 17
REMARK H PARENT 16 18 16 19
ROOT
ATOM      1  C   UNL     1     -13.634   4.806 -15.727  1.00  0.00     0.010 C 
ATOM      2  C   UNL     1     -14.597   4.095 -15.665  1.00  0.00    -0.068 C 
ATOM      3  C   UNL     1     -15.745   3.251 -15.592  1.00  0.00     0.055 A 
ATOM      4  C   UNL     1     -17.038   3.697 -15.763  1.00  0.00     0.106 A 
ATOM      5  N   UNL     1     -17.878   2.618 -15.628  1.00  0.00    -0.328 N 
ATOM      6  C   UNL     1     -17.134   1.489 -15.378  1.00  0.00     0.147 A 
ATOM      7  N   UNL     1     -17.630   0.252 -15.198  1.00  0.00    -0.218 NA
ATOM      8  C   UNL     1     -16.657  -0.645 -14.972  1.00  0.00     0.226 A 
ATOM      9  N   UNL     1     -15.329  -0.433 -14.908  1.00  0.00    -0.219 NA
ATOM     10  C   UNL     1     -14.871   0.819 -15.104  1.00  0.00     0.137 A 
ATOM     11  C   UNL     1     -15.791   1.850 -15.348  1.00  0.00     0.077 A 
ENDROOT
BRANCH   5  12
ATOM     12  C   UNL     1     -19.328   2.648 -15.744  1.00  0.00     0.089 C 
ATOM     13  C   UNL     1     -20.028   1.403 -15.166  1.00  0.00     0.025 C 
ATOM     14  C   UNL     1     -19.956   3.858 -15.031  1.00  0.00     0.025 C 
ATOM     15  C   UNL     1     -20.841   1.909 -13.981  1.00  0.00     0.002 C 
ATOM     16  C   UNL     1     -21.227   3.320 -14.391  1.00  0.00     0.002 C 
ENDBRANCH   5  12
BRANCH  10  17
ATOM     17  N   UNL     1     -13.498   0.999 -15.031  1.00  0.00    -0.383 N 
ATOM     18  H   UNL     1     -13.054   0.218 -14.564  1.00  0.00     0.158 HD
ATOM     19  H   UNL     1     -13.201   1.925 -14.753  1.00  0.00     0.158 HD
ENDBRANCH  10  17
TORSDOF 2
ENDMDL
MODEL 9
REMARK minimizedAffinity -6.04303312
REMARK CNNscore 0.165441588
REMARK CNNaffinity 5.36103201
REMARK SMILES C#Cc1cn(C2CCCC2)c2ncnc(N)c12
REMARK SMILES IDX 1 1 2 2 3 3 4 4 5 5 11 6 12 7 13 8 14 9 15 10 17 11 6 12
REMARK SMILES IDX 7 13 10 14 8 15 9 16 16 17
REMARK H PARENT 16 18 16 19
ROOT
ATOM      1  C   UNL     1     -27.452  -0.025  -6.984  1.00  0.00     0.010 C 
ATOM      2  C   UNL     1     -27.687  -1.157  -6.665  1.00  0.00    -0.068 C 
ATOM      3  C   UNL     1     -27.968  -2.503  -6.283  1.00  0.00     0.055 A 
ATOM      4  C   UNL     1     -28.481  -2.861  -5.055  1.00  0.00     0.106 A 
ATOM      5  N   UNL     1     -28.623  -4.228  -5.038  1.00  0.00    -0.328 N 
ATOM      6  C   UNL     1     -28.210  -4.743  -6.245  1.00  0.00     0.147 A 
ATOM      7  N   UNL     1     -28.216  -6.045  -6.580  1.00  0.00    -0.218 NA
ATOM      8  C   UNL     1     -27.754  -6.241  -7.824  1.00  0.00     0.226 A 
ATOM      9  N   UNL     1     -27.311  -5.319  -8.701  1.00  0.00    -0.219 NA
ATOM     10  C   UNL     1     -27.330  -4.024  -8.331  1.00  0.00     0.137 A 
ATOM     11  C   UNL     1     -27.791  -3.689  -7.049  1.00  0.00     0.077 A 
ENDROOT
BRANCH   5  12
ATOM     12  C   UNL     1     -29.142  -5.017  -3.932  1.00  0.00     0.089 C 
ATOM     13  C   UNL     1     -29.052  -4.313  -2.564  1.00  0.00     0.025 C 
ATOM     14  C   UNL     1     -30.620  -5.400  -4.118  1.00  0.00     0.025 C 
ATOM     15  C   UNL     1     -30.495  -4.091  -2.128  1.00  0.00     0.002 C 
ATOM     16  C   UNL     1     -31.234  -5.273  -2.732  1.00  0.00     0.002 C 
ENDBRANCH   5  12
BRANCH  10  17
ATOM     17  N   UNL     1     -26.867  -3.103  -9.260  1.00  0.00    -0.383 N 
ATOM     18  H   UNL     1     -26.319  -3.559  -9.980  1.00  0.00     0.158 HD
ATOM     19  H   UNL     1     -26.488  -2.252  -8.868  1.00  0.00     0.158 HD
ENDBRANCH  10  17
TORSDOF 2
ENDMDL
