MODEL 1
REMARK minimizedAffinity -11.6403341
REMARK CNNscore 0.951439798
REMARK CNNaffinity 8.86233521
REMARK SMILES C=C(C)Cn1c(C)c(C(=O)Nc2ccc(Oc3ccnc4cc(OC)ccc34)c(F)c2)c(=O)n1-c1ccccc1
REMARK SMILES IDX 12 1 13 2 14 3 15 4 29 5 30 6 31 7 11 8 9 9 10 10 8 12 5 13
REMARK SMILES IDX 6 14 34 15 32 16 33 17 7 18 4 19 2 20 1 21 3 22 35 23 36 24
REMARK SMILES IDX 40 25 37 26 39 27 38 28 16 29 17 30 18 31 28 32 19 33 27 34
REMARK SMILES IDX 21 35 20 36 26 37 22 38 23 39 24 40 25 41
REMARK H PARENT 11 11
ROOT
ATOM      1  C   UNL     1     -24.354  -1.429 -11.016  1.00  0.00     0.044 A 
ATOM      2  C   UNL     1     -23.008  -1.084 -10.853  1.00  0.00     0.030 A 
ATOM      3  C   UNL     1     -22.252  -0.635 -11.942  1.00  0.00     0.052 A 
ATOM      4  C   UNL     1     -22.836  -0.536 -13.203  1.00  0.00     0.163 A 
ATOM      5  C   UNL     1     -24.184  -0.850 -13.362  1.00  0.00     0.167 A 
ATOM      6  F   UNL     1     -24.784  -0.705 -14.553  1.00  0.00    -0.203 F 
ATOM      7  C   UNL     1     -24.937  -1.312 -12.284  1.00  0.00     0.069 A 
ENDROOT
BRANCH   1   8
ATOM      8  N   UNL     1     -25.176  -1.897  -9.969  1.00  0.00    -0.322 N 
ATOM      9  C   UNL     1     -26.534  -1.683  -9.811  1.00  0.00     0.263 C 
ATOM     10  O   UNL     1     -27.284  -1.068 -10.558  1.00  0.00    -0.269 OA
ATOM     11  H   UNL     1     -24.708  -2.410  -9.232  1.00  0.00     0.170 HD
BRANCH   9  12
ATOM     12  C   UNL     1     -27.058  -2.316  -8.598  1.00  0.00     0.128 A 
ATOM     13  N   UNL     1     -27.924  -2.653  -6.515  1.00  0.00    -0.277 N 
ATOM     14  C   UNL     1     -27.528  -1.723  -7.488  1.00  0.00     0.051 A 
ATOM     15  N   UNL     1     -27.737  -3.940  -7.104  1.00  0.00    -0.217 N 
ATOM     16  C   UNL     1     -27.163  -3.775  -8.377  1.00  0.00     0.284 A 
ATOM     17  O   UNL     1     -26.893  -4.608  -9.227  1.00  0.00    -0.266 OA
ATOM     18  C   UNL     1     -27.633  -0.252  -7.240  1.00  0.00     0.067 C 
BRANCH  13  19
ATOM     19  C   UNL     1     -27.474  -2.518  -5.106  1.00  0.00     0.173 C 
BRANCH  19  20
ATOM     20  C   UNL     1     -28.511  -1.883  -4.198  1.00  0.00    -0.059 C 
ATOM     21  C   UNL     1     -28.958  -0.629  -4.390  1.00  0.00     0.009 C 
ATOM     22  C   UNL     1     -29.115  -2.748  -3.123  1.00  0.00     0.041 C 
ENDBRANCH  19  20
ENDBRANCH  13  19
BRANCH  15  23
ATOM     23  C   UNL     1     -28.497  -5.070  -6.703  1.00  0.00     0.067 A 
ATOM     24  C   UNL     1     -29.426  -4.995  -5.652  1.00  0.00     0.028 A 
ATOM     25  C   UNL     1     -28.338  -6.303  -7.353  1.00  0.00     0.028 A 
ATOM     26  C   UNL     1     -30.159  -6.119  -5.255  1.00  0.00     0.002 A 
ATOM     27  C   UNL     1     -29.064  -7.429  -6.954  1.00  0.00     0.002 A 
ATOM     28  C   UNL     1     -29.973  -7.337  -5.903  1.00  0.00     0.000 A 
ENDBRANCH  15  23
ENDBRANCH   9  12
ENDBRANCH   1   8
BRANCH   4  29
ATOM     29  O   UNL     1     -22.050  -0.051 -14.219  1.00  0.00    -0.454 OA
BRANCH  29  30
ATOM     30  C   UNL     1     -21.683   1.282 -14.194  1.00  0.00     0.138 A 
ATOM     31  C   UNL     1     -22.580   2.303 -13.888  1.00  0.00     0.068 A 
ATOM     32  C   UNL     1     -20.363   1.594 -14.588  1.00  0.00     0.043 A 
ATOM     33  C   UNL     1     -22.119   3.601 -13.947  1.00  0.00     0.115 A 
ATOM     34  C   UNL     1     -19.407   0.619 -14.950  1.00  0.00     0.018 A 
ATOM     35  C   UNL     1     -20.002   2.957 -14.624  1.00  0.00     0.078 A 
ATOM     36  N   UNL     1     -20.861   3.941 -14.302  1.00  0.00    -0.256 NA
ATOM     37  C   UNL     1     -18.124   0.994 -15.354  1.00  0.00     0.047 A 
ATOM     38  C   UNL     1     -18.714   3.304 -15.021  1.00  0.00     0.075 A 
ATOM     39  C   UNL     1     -17.770   2.340 -15.394  1.00  0.00     0.121 A 
BRANCH  39  40
ATOM     40  O   UNL     1     -16.491   2.582 -15.819  1.00  0.00    -0.497 OA
ATOM     41  C   UNL     1     -16.058   3.938 -15.811  1.00  0.00     0.278 C 
ENDBRANCH  39  40
ENDBRANCH  29  30
ENDBRANCH   4  29
TORSDOF 8
ENDMDL
MODEL 2
REMARK minimizedAffinity -10.7223854
REMARK CNNscore 0.901806891
REMARK CNNaffinity 8.80069828
REMARK SMILES C=C(C)Cn1c(C)c(C(=O)Nc2ccc(Oc3ccnc4cc(OC)ccc34)c(F)c2)c(=O)n1-c1ccccc1
REMARK SMILES IDX 12 1 13 2 14 3 15 4 29 5 30 6 31 7 11 8 9 9 10 10 8 12 5 13
REMARK SMILES IDX 6 14 34 15 32 16 33 17 7 18 4 19 2 20 1 21 3 22 35 23 36 24
REMARK SMILES IDX 40 25 37 26 39 27 38 28 16 29 17 30 18 31 28 32 19 33 27 34
REMARK SMILES IDX 21 35 20 36 26 37 22 38 23 39 24 40 25 41
REMARK H PARENT 11 11
ROOT
ATOM      1  C   UNL     1     -24.623  -1.675 -10.825  1.00  0.00     0.044 A 
ATOM      2  C   UNL     1     -23.290  -1.314 -10.595  1.00  0.00     0.030 A 
ATOM      3  C   UNL     1     -22.490  -0.845 -11.642  1.00  0.00     0.052 A 
ATOM      4  C   UNL     1     -23.014  -0.740 -12.929  1.00  0.00     0.163 A 
ATOM      5  C   UNL     1     -24.349  -1.070 -13.155  1.00  0.00     0.167 A 
ATOM      6  F   UNL     1     -24.894  -0.919 -14.372  1.00  0.00    -0.203 F 
ATOM      7  C   UNL     1     -25.147  -1.552 -12.118  1.00  0.00     0.069 A 
ENDROOT
BRANCH   1   8
ATOM      8  N   UNL     1     -25.487  -2.164  -9.823  1.00  0.00    -0.322 N 
ATOM      9  C   UNL     1     -26.808  -1.811  -9.611  1.00  0.00     0.263 C 
ATOM     10  O   UNL     1     -27.484  -1.026 -10.263  1.00  0.00    -0.269 OA
ATOM     11  H   UNL     1     -25.079  -2.814  -9.163  1.00  0.00     0.170 HD
BRANCH   9  12
ATOM     12  C   UNL     1     -27.396  -2.518  -8.470  1.00  0.00     0.128 A 
ATOM     13  N   UNL     1     -28.120  -4.157  -7.059  1.00  0.00    -0.277 N 
ATOM     14  C   UNL     1     -27.456  -3.842  -8.255  1.00  0.00     0.051 A 
ATOM     15  N   UNL     1     -28.446  -2.907  -6.451  1.00  0.00    -0.217 N 
ATOM     16  C   UNL     1     -28.052  -1.869  -7.314  1.00  0.00     0.284 A 
ATOM     17  O   UNL     1     -28.099  -0.660  -7.155  1.00  0.00    -0.266 OA
ATOM     18  C   UNL     1     -26.916  -4.915  -9.145  1.00  0.00     0.067 C 
BRANCH  13  19
ATOM     19  C   UNL     1     -29.191  -5.185  -7.032  1.00  0.00     0.173 C 
BRANCH  19  20
ATOM     20  C   UNL     1     -28.768  -6.481  -6.365  1.00  0.00    -0.059 C 
ATOM     21  C   UNL     1     -28.394  -7.562  -7.072  1.00  0.00     0.009 C 
ATOM     22  C   UNL     1     -28.676  -6.489  -4.861  1.00  0.00     0.041 C 
ENDBRANCH  19  20
ENDBRANCH  13  19
BRANCH  15  23
ATOM     23  C   UNL     1     -28.606  -2.772  -5.047  1.00  0.00     0.067 A 
ATOM     24  C   UNL     1     -27.538  -2.389  -4.219  1.00  0.00     0.028 A 
ATOM     25  C   UNL     1     -29.848  -3.020  -4.445  1.00  0.00     0.028 A 
ATOM     26  C   UNL     1     -27.704  -2.275  -2.834  1.00  0.00     0.002 A 
ATOM     27  C   UNL     1     -30.015  -2.914  -3.061  1.00  0.00     0.002 A 
ATOM     28  C   UNL     1     -28.942  -2.543  -2.255  1.00  0.00     0.000 A 
ENDBRANCH  15  23
ENDBRANCH   9  12
ENDBRANCH   1   8
BRANCH   4  29
ATOM     29  O   UNL     1     -22.188  -0.234 -13.901  1.00  0.00    -0.454 OA
BRANCH  29  30
ATOM     30  C   UNL     1     -21.956   1.129 -13.931  1.00  0.00     0.138 A 
ATOM     31  C   UNL     1     -22.933   2.064 -13.601  1.00  0.00     0.068 A 
ATOM     32  C   UNL     1     -20.697   1.557 -14.407  1.00  0.00     0.043 A 
ATOM     33  C   UNL     1     -22.608   3.399 -13.718  1.00  0.00     0.115 A 
ATOM     34  C   UNL     1     -19.669   0.671 -14.799  1.00  0.00     0.018 A 
ATOM     35  C   UNL     1     -20.477   2.947 -14.499  1.00  0.00     0.078 A 
ATOM     36  N   UNL     1     -21.412   3.851 -14.153  1.00  0.00    -0.256 NA
ATOM     37  C   UNL     1     -18.454   1.158 -15.285  1.00  0.00     0.047 A 
ATOM     38  C   UNL     1     -19.254   3.407 -14.977  1.00  0.00     0.075 A 
ATOM     39  C   UNL     1     -18.240   2.530 -15.379  1.00  0.00     0.121 A 
BRANCH  39  40
ATOM     40  O   UNL     1     -17.017   2.885 -15.883  1.00  0.00    -0.497 OA
ATOM     41  C   UNL     1     -16.684   4.268 -15.844  1.00  0.00     0.278 C 
ENDBRANCH  39  40
ENDBRANCH  29  30
ENDBRANCH   4  29
TORSDOF 8
ENDMDL
MODEL 3
REMARK minimizedAffinity -6.18127489
REMARK CNNscore 0.326113254
REMARK CNNaffinity 8.38742161
REMARK SMILES C=C(C)Cn1c(C)c(C(=O)Nc2ccc(Oc3ccnc4cc(OC)ccc34)c(F)c2)c(=O)n1-c1ccccc1
REMARK SMILES IDX 12 1 13 2 14 3 15 4 29 5 30 6 31 7 11 8 9 9 10 10 8 12 5 13
REMARK SMILES IDX 6 14 34 15 32 16 33 17 7 18 4 19 2 20 1 21 3 22 35 23 36 24
REMARK SMILES IDX 40 25 37 26 39 27 38 28 16 29 17 30 18 31 28 32 19 33 27 34
REMARK SMILES IDX 21 35 20 36 26 37 22 38 23 39 24 40 25 41
REMARK H PARENT 11 11
ROOT
ATOM      1  C   UNL     1     -20.829   1.056 -13.524  1.00  0.00     0.044 A 
ATOM      2  C   UNL     1     -21.787   2.022 -13.852  1.00  0.00     0.030 A 
ATOM      3  C   UNL     1     -23.083   1.944 -13.330  1.00  0.00     0.052 A 
ATOM      4  C   UNL     1     -23.433   0.895 -12.483  1.00  0.00     0.163 A 
ATOM      5  C   UNL     1     -22.473  -0.052 -12.131  1.00  0.00     0.167 A 
ATOM      6  F   UNL     1     -22.768  -1.037 -11.269  1.00  0.00    -0.203 F 
ATOM      7  C   UNL     1     -21.184   0.013 -12.659  1.00  0.00     0.069 A 
ENDROOT
BRANCH   1   8
ATOM      8  N   UNL     1     -19.507   1.063 -14.017  1.00  0.00    -0.322 N 
ATOM      9  C   UNL     1     -19.017   1.788 -15.089  1.00  0.00     0.263 C 
ATOM     10  O   UNL     1     -19.629   2.576 -15.798  1.00  0.00    -0.269 OA
ATOM     11  H   UNL     1     -18.859   0.435 -13.559  1.00  0.00     0.170 HD
BRANCH   9  12
ATOM     12  C   UNL     1     -17.591   1.542 -15.320  1.00  0.00     0.128 A 
ATOM     13  N   UNL     1     -15.582   0.516 -15.654  1.00  0.00    -0.277 N 
ATOM     14  C   UNL     1     -16.966   0.364 -15.477  1.00  0.00     0.051 A 
ATOM     15  N   UNL     1     -15.341   1.923 -15.669  1.00  0.00    -0.217 N 
ATOM     16  C   UNL     1     -16.553   2.591 -15.423  1.00  0.00     0.284 A 
ATOM     17  O   UNL     1     -16.797   3.787 -15.404  1.00  0.00    -0.266 OA
ATOM     18  C   UNL     1     -17.600  -0.990 -15.461  1.00  0.00     0.067 C 
BRANCH  13  19
ATOM     19  C   UNL     1     -14.621  -0.295 -14.865  1.00  0.00     0.173 C 
BRANCH  19  20
ATOM     20  C   UNL     1     -15.048  -0.508 -13.425  1.00  0.00    -0.059 C 
ATOM     21  C   UNL     1     -15.269  -1.733 -12.917  1.00  0.00     0.009 C 
ATOM     22  C   UNL     1     -15.116   0.707 -12.535  1.00  0.00     0.041 C 
ENDBRANCH  19  20
ENDBRANCH  13  19
BRANCH  15  23
ATOM     23  C   UNL     1     -14.231   2.490 -16.349  1.00  0.00     0.067 A 
ATOM     24  C   UNL     1     -13.493   3.549 -15.797  1.00  0.00     0.028 A 
ATOM     25  C   UNL     1     -13.839   1.998 -17.603  1.00  0.00     0.028 A 
ATOM     26  C   UNL     1     -12.411   4.110 -16.484  1.00  0.00     0.002 A 
ATOM     27  C   UNL     1     -12.762   2.561 -18.295  1.00  0.00     0.002 A 
ATOM     28  C   UNL     1     -12.050   3.619 -17.736  1.00  0.00     0.000 A 
ENDBRANCH  15  23
ENDBRANCH   9  12
ENDBRANCH   1   8
BRANCH   4  29
ATOM     29  O   UNL     1     -24.707   0.901 -11.974  1.00  0.00    -0.454 OA
BRANCH  29  30
ATOM     30  C   UNL     1     -25.525  -0.187 -12.220  1.00  0.00     0.138 A 
ATOM     31  C   UNL     1     -25.919  -0.555 -13.504  1.00  0.00     0.068 A 
ATOM     32  C   UNL     1     -26.036  -0.875 -11.097  1.00  0.00     0.043 A 
ATOM     33  C   UNL     1     -26.781  -1.625 -13.629  1.00  0.00     0.115 A 
ATOM     34  C   UNL     1     -25.716  -0.538  -9.764  1.00  0.00     0.018 A 
ATOM     35  C   UNL     1     -26.921  -1.946 -11.341  1.00  0.00     0.078 A 
ATOM     36  N   UNL     1     -27.280  -2.320 -12.583  1.00  0.00    -0.256 NA
ATOM     37  C   UNL     1     -26.275  -1.242  -8.695  1.00  0.00     0.047 A 
ATOM     38  C   UNL     1     -27.457  -2.639 -10.260  1.00  0.00     0.075 A 
ATOM     39  C   UNL     1     -27.151  -2.297  -8.938  1.00  0.00     0.121 A 
BRANCH  39  40
ATOM     40  O   UNL     1     -27.643  -2.900  -7.811  1.00  0.00    -0.497 OA
ATOM     41  C   UNL     1     -29.004  -3.315  -7.849  1.00  0.00     0.278 C 
ENDBRANCH  39  40
ENDBRANCH  29  30
ENDBRANCH   4  29
TORSDOF 8
ENDMDL
MODEL 4
REMARK minimizedAffinity -6.19317293
REMARK CNNscore 0.295799822
REMARK CNNaffinity 8.01260281
REMARK SMILES C=C(C)Cn1c(C)c(C(=O)Nc2ccc(Oc3ccnc4cc(OC)ccc34)c(F)c2)c(=O)n1-c1ccccc1
REMARK SMILES IDX 12 1 13 2 14 3 15 4 29 5 30 6 31 7 11 8 9 9 10 10 8 12 5 13
REMARK SMILES IDX 6 14 34 15 32 16 33 17 7 18 4 19 2 20 1 21 3 22 35 23 36 24
REMARK SMILES IDX 40 25 37 26 39 27 38 28 16 29 17 30 18 31 28 32 19 33 27 34
REMARK SMILES IDX 21 35 20 36 26 37 22 38 23 39 24 40 25 41
REMARK H PARENT 11 11
ROOT
ATOM      1  C   UNL     1     -22.289  -0.864 -12.642  1.00  0.00     0.044 A 
ATOM      2  C   UNL     1     -22.388  -1.228 -11.295  1.00  0.00     0.030 A 
ATOM      3  C   UNL     1     -23.604  -1.676 -10.767  1.00  0.00     0.052 A 
ATOM      4  C   UNL     1     -24.732  -1.755 -11.581  1.00  0.00     0.163 A 
ATOM      5  C   UNL     1     -24.629  -1.423 -12.930  1.00  0.00     0.167 A 
ATOM      6  F   UNL     1     -25.685  -1.550 -13.748  1.00  0.00    -0.203 F 
ATOM      7  C   UNL     1     -23.424  -0.963 -13.458  1.00  0.00     0.069 A 
ENDROOT
BRANCH   1   8
ATOM      8  N   UNL     1     -21.101  -0.396 -13.243  1.00  0.00    -0.322 N 
ATOM      9  C   UNL     1     -20.953   0.723 -14.044  1.00  0.00     0.263 C 
ATOM     10  O   UNL     1     -21.814   1.531 -14.364  1.00  0.00    -0.269 OA
ATOM     11  H   UNL     1     -20.278  -0.969 -13.106  1.00  0.00     0.170 HD
BRANCH   9  12
ATOM     12  C   UNL     1     -19.571   0.900 -14.500  1.00  0.00     0.128 A 
ATOM     13  N   UNL     1     -17.490   0.514 -15.349  1.00  0.00    -0.277 N 
ATOM     14  C   UNL     1     -18.761  -0.010 -15.064  1.00  0.00     0.051 A 
ATOM     15  N   UNL     1     -17.543   1.893 -14.980  1.00  0.00    -0.217 N 
ATOM     16  C   UNL     1     -18.801   2.159 -14.411  1.00  0.00     0.284 A 
ATOM     17  O   UNL     1     -19.273   3.213 -14.016  1.00  0.00    -0.266 OA
ATOM     18  C   UNL     1     -19.095  -1.434 -15.371  1.00  0.00     0.067 C 
BRANCH  13  19
ATOM     19  C   UNL     1     -16.260  -0.213 -14.947  1.00  0.00     0.173 C 
BRANCH  19  20
ATOM     20  C   UNL     1     -15.949  -0.106 -13.466  1.00  0.00    -0.059 C 
ATOM     21  C   UNL     1     -16.178   1.019 -12.766  1.00  0.00     0.009 C 
ATOM     22  C   UNL     1     -15.469  -1.351 -12.765  1.00  0.00     0.041 C 
ENDBRANCH  19  20
ENDBRANCH  13  19
BRANCH  15  23
ATOM     23  C   UNL     1     -16.710   2.868 -15.589  1.00  0.00     0.067 A 
ATOM     24  C   UNL     1     -17.126   4.200 -15.739  1.00  0.00     0.028 A 
ATOM     25  C   UNL     1     -15.436   2.519 -16.061  1.00  0.00     0.028 A 
ATOM     26  C   UNL     1     -16.303   5.149 -16.355  1.00  0.00     0.002 A 
ATOM     27  C   UNL     1     -14.614   3.463 -16.684  1.00  0.00     0.002 A 
ATOM     28  C   UNL     1     -15.048   4.777 -16.833  1.00  0.00     0.000 A 
ENDBRANCH  15  23
ENDBRANCH   9  12
ENDBRANCH   1   8
BRANCH   4  29
ATOM     29  O   UNL     1     -25.882  -2.241 -11.010  1.00  0.00    -0.454 OA
BRANCH  29  30
ATOM     30  C   UNL     1     -26.281  -1.733  -9.787  1.00  0.00     0.138 A 
ATOM     31  C   UNL     1     -26.038  -0.416  -9.406  1.00  0.00     0.068 A 
ATOM     32  C   UNL     1     -26.873  -2.637  -8.877  1.00  0.00     0.043 A 
ATOM     33  C   UNL     1     -26.431  -0.032  -8.141  1.00  0.00     0.115 A 
ATOM     34  C   UNL     1     -27.116  -3.996  -9.175  1.00  0.00     0.018 A 
ATOM     35  C   UNL     1     -27.225  -2.139  -7.606  1.00  0.00     0.078 A 
ATOM     36  N   UNL     1     -27.016  -0.859  -7.247  1.00  0.00    -0.256 NA
ATOM     37  C   UNL     1     -27.684  -4.845  -8.222  1.00  0.00     0.047 A 
ATOM     38  C   UNL     1     -27.798  -3.002  -6.677  1.00  0.00     0.075 A 
ATOM     39  C   UNL     1     -28.026  -4.352  -6.966  1.00  0.00     0.121 A 
BRANCH  39  40
ATOM     40  O   UNL     1     -28.561  -5.283  -6.115  1.00  0.00    -0.497 OA
ATOM     41  C   UNL     1     -28.959  -4.821  -4.828  1.00  0.00     0.278 C 
ENDBRANCH  39  40
ENDBRANCH  29  30
ENDBRANCH   4  29
TORSDOF 8
ENDMDL
MODEL 5
REMARK minimizedAffinity -8.55601788
REMARK CNNscore 0.294527203
REMARK CNNaffinity 7.42938852
REMARK SMILES C=C(C)Cn1c(C)c(C(=O)Nc2ccc(Oc3ccnc4cc(OC)ccc34)c(F)c2)c(=O)n1-c1ccccc1
REMARK SMILES IDX 12 1 13 2 14 3 15 4 29 5 30 6 31 7 11 8 9 9 10 10 8 12 5 13
REMARK SMILES IDX 6 14 34 15 32 16 33 17 7 18 4 19 2 20 1 21 3 22 35 23 36 24
REMARK SMILES IDX 40 25 37 26 39 27 38 28 16 29 17 30 18 31 28 32 19 33 27 34
REMARK SMILES IDX 21 35 20 36 26 37 22 38 23 39 24 40 25 41
REMARK H PARENT 11 11
ROOT
ATOM      1  C   UNL     1     -15.958   2.721 -15.460  1.00  0.00     0.044 A 
ATOM      2  C   UNL     1     -17.150   3.454 -15.431  1.00  0.00     0.030 A 
ATOM      3  C   UNL     1     -18.384   2.801 -15.337  1.00  0.00     0.052 A 
ATOM      4  C   UNL     1     -18.435   1.410 -15.281  1.00  0.00     0.163 A 
ATOM      5  C   UNL     1     -17.249   0.679 -15.279  1.00  0.00     0.167 A 
ATOM      6  F   UNL     1     -17.269  -0.658 -15.163  1.00  0.00    -0.203 F 
ATOM      7  C   UNL     1     -16.017   1.324 -15.386  1.00  0.00     0.069 A 
ENDROOT
BRANCH   1   8
ATOM      8  N   UNL     1     -14.679   3.308 -15.561  1.00  0.00    -0.322 N 
ATOM      9  C   UNL     1     -13.600   3.116 -14.716  1.00  0.00     0.263 C 
ATOM     10  O   UNL     1     -13.542   2.386 -13.735  1.00  0.00    -0.269 OA
ATOM     11  H   UNL     1     -14.554   3.975 -16.313  1.00  0.00     0.170 HD
BRANCH   9  12
ATOM     12  C   UNL     1     -12.429   3.895 -15.125  1.00  0.00     0.128 A 
ATOM     13  N   UNL     1     -10.302   4.696 -15.316  1.00  0.00    -0.277 N 
ATOM     14  C   UNL     1     -11.154   3.746 -14.730  1.00  0.00     0.051 A 
ATOM     15  N   UNL     1     -11.119   5.464 -16.200  1.00  0.00    -0.217 N 
ATOM     16  C   UNL     1     -12.450   5.026 -16.078  1.00  0.00     0.284 A 
ATOM     17  O   UNL     1     -13.447   5.376 -16.689  1.00  0.00    -0.266 OA
ATOM     18  C   UNL     1     -10.630   2.724 -13.774  1.00  0.00     0.067 C 
BRANCH  13  19
ATOM     19  C   UNL     1      -9.344   5.472 -14.487  1.00  0.00     0.173 C 
BRANCH  19  20
ATOM     20  C   UNL     1     -10.005   6.243 -13.360  1.00  0.00    -0.059 C 
ATOM     21  C   UNL     1      -9.869   5.884 -12.072  1.00  0.00     0.009 C 
ATOM     22  C   UNL     1     -10.743   7.506 -13.723  1.00  0.00     0.041 C 
ENDBRANCH  19  20
ENDBRANCH  13  19
BRANCH  15  23
ATOM     23  C   UNL     1     -10.586   6.116 -17.342  1.00  0.00     0.067 A 
ATOM     24  C   UNL     1     -10.591   7.515 -17.459  1.00  0.00     0.028 A 
ATOM     25  C   UNL     1     -10.034   5.370 -18.395  1.00  0.00     0.028 A 
ATOM     26  C   UNL     1     -10.076   8.146 -18.597  1.00  0.00     0.002 A 
ATOM     27  C   UNL     1      -9.526   5.998 -19.536  1.00  0.00     0.002 A 
ATOM     28  C   UNL     1      -9.549   7.386 -19.638  1.00  0.00     0.000 A 
ENDBRANCH  15  23
ENDBRANCH   9  12
ENDBRANCH   1   8
BRANCH   4  29
ATOM     29  O   UNL     1     -19.674   0.835 -15.149  1.00  0.00    -0.454 OA
BRANCH  29  30
ATOM     30  C   UNL     1     -20.706   1.594 -14.627  1.00  0.00     0.138 A 
ATOM     31  C   UNL     1     -20.754   2.980 -14.749  1.00  0.00     0.068 A 
ATOM     32  C   UNL     1     -21.684   0.915 -13.867  1.00  0.00     0.043 A 
ATOM     33  C   UNL     1     -21.801   3.642 -14.143  1.00  0.00     0.115 A 
ATOM     34  C   UNL     1     -21.681  -0.482 -13.663  1.00  0.00     0.018 A 
ATOM     35  C   UNL     1     -22.703   1.693 -13.280  1.00  0.00     0.078 A 
ATOM     36  N   UNL     1     -22.765   3.030 -13.421  1.00  0.00    -0.256 NA
ATOM     37  C   UNL     1     -22.664  -1.091 -12.880  1.00  0.00     0.047 A 
ATOM     38  C   UNL     1     -23.677   1.062 -12.511  1.00  0.00     0.075 A 
ATOM     39  C   UNL     1     -23.667  -0.321 -12.298  1.00  0.00     0.121 A 
BRANCH  39  40
ATOM     40  O   UNL     1     -24.564  -1.029 -11.541  1.00  0.00    -0.497 OA
ATOM     41  C   UNL     1     -25.935  -0.932 -11.914  1.00  0.00     0.278 C 
ENDBRANCH  39  40
ENDBRANCH  29  30
ENDBRANCH   4  29
TORSDOF 8
ENDMDL
MODEL 6
REMARK minimizedAffinity -8.94845867
REMARK CNNscore 0.278700292
REMARK CNNaffinity 7.20159292
REMARK SMILES C=C(C)Cn1c(C)c(C(=O)Nc2ccc(Oc3ccnc4cc(OC)ccc34)c(F)c2)c(=O)n1-c1ccccc1
REMARK SMILES IDX 12 1 13 2 14 3 15 4 29 5 30 6 31 7 11 8 9 9 10 10 8 12 5 13
REMARK SMILES IDX 6 14 34 15 32 16 33 17 7 18 4 19 2 20 1 21 3 22 35 23 36 24
REMARK SMILES IDX 40 25 37 26 39 27 38 28 16 29 17 30 18 31 28 32 19 33 27 34
REMARK SMILES IDX 21 35 20 36 26 37 22 38 23 39 24 40 25 41
REMARK H PARENT 11 11
ROOT
ATOM      1  C   UNL     1     -16.881   3.036 -15.352  1.00  0.00     0.044 A 
ATOM      2  C   UNL     1     -18.125   3.676 -15.340  1.00  0.00     0.030 A 
ATOM      3  C   UNL     1     -19.307   2.931 -15.249  1.00  0.00     0.052 A 
ATOM      4  C   UNL     1     -19.252   1.541 -15.178  1.00  0.00     0.163 A 
ATOM      5  C   UNL     1     -18.013   0.903 -15.159  1.00  0.00     0.167 A 
ATOM      6  F   UNL     1     -17.932  -0.430 -15.030  1.00  0.00    -0.203 F 
ATOM      7  C   UNL     1     -16.834   1.639 -15.264  1.00  0.00     0.069 A 
ENDROOT
BRANCH   1   8
ATOM      8  N   UNL     1     -15.649   3.718 -15.450  1.00  0.00    -0.322 N 
ATOM      9  C   UNL     1     -14.421   3.182 -15.794  1.00  0.00     0.263 C 
ATOM     10  O   UNL     1     -14.172   2.024 -16.101  1.00  0.00    -0.269 OA
ATOM     11  H   UNL     1     -15.664   4.698 -15.198  1.00  0.00     0.170 HD
BRANCH   9  12
ATOM     12  C   UNL     1     -13.355   4.188 -15.788  1.00  0.00     0.128 A 
ATOM     13  N   UNL     1     -11.916   5.844 -16.412  1.00  0.00    -0.277 N 
ATOM     14  C   UNL     1     -13.008   5.037 -16.769  1.00  0.00     0.051 A 
ATOM     15  N   UNL     1     -11.600   5.501 -15.063  1.00  0.00    -0.217 N 
ATOM     16  C   UNL     1     -12.441   4.451 -14.655  1.00  0.00     0.284 A 
ATOM     17  O   UNL     1     -12.536   3.902 -13.569  1.00  0.00    -0.266 OA
ATOM     18  C   UNL     1     -13.651   5.157 -18.113  1.00  0.00     0.067 C 
BRANCH  13  19
ATOM     19  C   UNL     1     -10.757   6.001 -17.326  1.00  0.00     0.173 C 
BRANCH  19  20
ATOM     20  C   UNL     1     -10.520   7.434 -17.763  1.00  0.00    -0.059 C 
ATOM     21  C   UNL     1      -9.368   7.828 -18.334  1.00  0.00     0.009 C 
ATOM     22  C   UNL     1     -11.672   8.398 -17.635  1.00  0.00     0.041 C 
ENDBRANCH  19  20
ENDBRANCH  13  19
BRANCH  15  23
ATOM     23  C   UNL     1     -10.969   6.418 -14.182  1.00  0.00     0.067 A 
ATOM     24  C   UNL     1     -11.292   7.784 -14.188  1.00  0.00     0.028 A 
ATOM     25  C   UNL     1      -9.996   5.976 -13.273  1.00  0.00     0.028 A 
ATOM     26  C   UNL     1     -10.652   8.681 -13.326  1.00  0.00     0.002 A 
ATOM     27  C   UNL     1      -9.350   6.871 -12.415  1.00  0.00     0.002 A 
ATOM     28  C   UNL     1      -9.676   8.224 -12.443  1.00  0.00     0.000 A 
ENDBRANCH  15  23
ENDBRANCH   9  12
ENDBRANCH   1   8
BRANCH   4  29
ATOM     29  O   UNL     1     -20.444   0.874 -15.050  1.00  0.00    -0.454 OA
BRANCH  29  30
ATOM     30  C   UNL     1     -21.455   1.459 -14.310  1.00  0.00     0.138 A 
ATOM     31  C   UNL     1     -21.664   2.836 -14.281  1.00  0.00     0.068 A 
ATOM     32  C   UNL     1     -22.229   0.607 -13.490  1.00  0.00     0.043 A 
ATOM     33  C   UNL     1     -22.668   3.315 -13.465  1.00  0.00     0.115 A 
ATOM     34  C   UNL     1     -22.052  -0.792 -13.434  1.00  0.00     0.018 A 
ATOM     35  C   UNL     1     -23.220   1.207 -12.686  1.00  0.00     0.078 A 
ATOM     36  N   UNL     1     -23.441   2.535 -12.679  1.00  0.00    -0.256 NA
ATOM     37  C   UNL     1     -22.834  -1.577 -12.584  1.00  0.00     0.047 A 
ATOM     38  C   UNL     1     -23.994   0.402 -11.855  1.00  0.00     0.075 A 
ATOM     39  C   UNL     1     -23.809  -0.983 -11.788  1.00  0.00     0.121 A 
BRANCH  39  40
ATOM     40  O   UNL     1     -24.501  -1.853 -10.987  1.00  0.00    -0.497 OA
ATOM     41  C   UNL     1     -25.807  -1.456 -10.586  1.00  0.00     0.278 C 
ENDBRANCH  39  40
ENDBRANCH  29  30
ENDBRANCH   4  29
TORSDOF 8
ENDMDL
MODEL 7
REMARK minimizedAffinity -9.24222279
REMARK CNNscore 0.240698665
REMARK CNNaffinity 7.43196106
REMARK SMILES C=C(C)Cn1c(C)c(C(=O)Nc2ccc(Oc3ccnc4cc(OC)ccc34)c(F)c2)c(=O)n1-c1ccccc1
REMARK SMILES IDX 12 1 13 2 14 3 15 4 29 5 30 6 31 7 11 8 9 9 10 10 8 12 5 13
REMARK SMILES IDX 6 14 34 15 32 16 33 17 7 18 4 19 2 20 1 21 3 22 35 23 36 24
REMARK SMILES IDX 40 25 37 26 39 27 38 28 16 29 17 30 18 31 28 32 19 33 27 34
REMARK SMILES IDX 21 35 20 36 26 37 22 38 23 39 24 40 25 41
REMARK H PARENT 11 11
ROOT
ATOM      1  C   UNL     1     -15.913  -0.761 -13.735  1.00  0.00     0.044 A 
ATOM      2  C   UNL     1     -16.576  -1.420 -14.777  1.00  0.00     0.030 A 
ATOM      3  C   UNL     1     -17.602  -0.781 -15.482  1.00  0.00     0.052 A 
ATOM      4  C   UNL     1     -17.977   0.518 -15.146  1.00  0.00     0.163 A 
ATOM      5  C   UNL     1     -17.298   1.187 -14.130  1.00  0.00     0.167 A 
ATOM      6  F   UNL     1     -17.599   2.460 -13.828  1.00  0.00    -0.203 F 
ATOM      7  C   UNL     1     -16.285   0.550 -13.414  1.00  0.00     0.069 A 
ENDROOT
BRANCH   1   8
ATOM      8  N   UNL     1     -14.877  -1.342 -12.973  1.00  0.00    -0.322 N 
ATOM      9  C   UNL     1     -14.928  -2.523 -12.254  1.00  0.00     0.263 C 
ATOM     10  O   UNL     1     -15.870  -3.299 -12.160  1.00  0.00    -0.269 OA
ATOM     11  H   UNL     1     -14.017  -0.812 -12.916  1.00  0.00     0.170 HD
BRANCH   9  12
ATOM     12  C   UNL     1     -13.662  -2.816 -11.577  1.00  0.00     0.128 A 
ATOM     13  N   UNL     1     -11.445  -3.127 -11.138  1.00  0.00    -0.277 N 
ATOM     14  C   UNL     1     -12.417  -2.746 -12.077  1.00  0.00     0.051 A 
ATOM     15  N   UNL     1     -12.154  -3.397  -9.928  1.00  0.00    -0.217 N 
ATOM     16  C   UNL     1     -13.531  -3.257 -10.171  1.00  0.00     0.284 A 
ATOM     17  O   UNL     1     -14.474  -3.346  -9.401  1.00  0.00    -0.266 OA
ATOM     18  C   UNL     1     -12.035  -2.337 -13.463  1.00  0.00     0.067 C 
BRANCH  13  19
ATOM     19  C   UNL     1     -10.383  -4.101 -11.495  1.00  0.00     0.173 C 
BRANCH  19  20
ATOM     20  C   UNL     1     -10.814  -5.548 -11.343  1.00  0.00    -0.059 C 
ATOM     21  C   UNL     1     -11.684  -6.129 -12.187  1.00  0.00     0.009 C 
ATOM     22  C   UNL     1     -10.144  -6.361 -10.265  1.00  0.00     0.041 C 
ENDBRANCH  19  20
ENDBRANCH  13  19
BRANCH  15  23
ATOM     23  C   UNL     1     -11.542  -3.270  -8.654  1.00  0.00     0.067 A 
ATOM     24  C   UNL     1     -10.750  -2.158  -8.326  1.00  0.00     0.028 A 
ATOM     25  C   UNL     1     -11.716  -4.264  -7.679  1.00  0.00     0.028 A 
ATOM     26  C   UNL     1     -10.139  -2.052  -7.071  1.00  0.00     0.002 A 
ATOM     27  C   UNL     1     -11.102  -4.163  -6.427  1.00  0.00     0.002 A 
ATOM     28  C   UNL     1     -10.311  -3.058  -6.124  1.00  0.00     0.000 A 
ENDBRANCH  15  23
ENDBRANCH   9  12
ENDBRANCH   1   8
BRANCH   4  29
ATOM     29  O   UNL     1     -18.962   1.101 -15.904  1.00  0.00    -0.454 OA
BRANCH  29  30
ATOM     30  C   UNL     1     -19.823   1.997 -15.298  1.00  0.00     0.138 A 
ATOM     31  C   UNL     1     -19.657   3.376 -15.389  1.00  0.00     0.068 A 
ATOM     32  C   UNL     1     -20.847   1.458 -14.488  1.00  0.00     0.043 A 
ATOM     33  C   UNL     1     -20.544   4.176 -14.700  1.00  0.00     0.115 A 
ATOM     34  C   UNL     1     -21.056   0.073 -14.314  1.00  0.00     0.018 A 
ATOM     35  C   UNL     1     -21.690   2.370 -13.818  1.00  0.00     0.078 A 
ATOM     36  N   UNL     1     -21.546   3.703 -13.928  1.00  0.00    -0.256 NA
ATOM     37  C   UNL     1     -22.072  -0.397 -13.479  1.00  0.00     0.047 A 
ATOM     38  C   UNL     1     -22.702   1.877 -12.999  1.00  0.00     0.075 A 
ATOM     39  C   UNL     1     -22.900   0.504 -12.815  1.00  0.00     0.121 A 
BRANCH  39  40
ATOM     40  O   UNL     1     -23.850  -0.075 -12.014  1.00  0.00    -0.497 OA
ATOM     41  C   UNL     1     -25.089  -0.410 -12.629  1.00  0.00     0.278 C 
ENDBRANCH  39  40
ENDBRANCH  29  30
ENDBRANCH   4  29
TORSDOF 8
ENDMDL
MODEL 8
REMARK minimizedAffinity -8.68509007
REMARK CNNscore 0.237627104
REMARK CNNaffinity 7.69086695
REMARK SMILES C=C(C)Cn1c(C)c(C(=O)Nc2ccc(Oc3ccnc4cc(OC)ccc34)c(F)c2)c(=O)n1-c1ccccc1
REMARK SMILES IDX 12 1 13 2 14 3 15 4 29 5 30 6 31 7 11 8 9 9 10 10 8 12 5 13
REMARK SMILES IDX 6 14 34 15 32 16 33 17 7 18 4 19 2 20 1 21 3 22 35 23 36 24
REMARK SMILES IDX 40 25 37 26 39 27 38 28 16 29 17 30 18 31 28 32 19 33 27 34
REMARK SMILES IDX 21 35 20 36 26 37 22 38 23 39 24 40 25 41
REMARK H PARENT 11 11
ROOT
ATOM      1  C   UNL     1     -19.271   2.041 -15.026  1.00  0.00     0.044 A 
ATOM      2  C   UNL     1     -19.620   0.696 -14.861  1.00  0.00     0.030 A 
ATOM      3  C   UNL     1     -20.883   0.345 -14.371  1.00  0.00     0.052 A 
ATOM      4  C   UNL     1     -21.802   1.337 -14.035  1.00  0.00     0.163 A 
ATOM      5  C   UNL     1     -21.468   2.676 -14.227  1.00  0.00     0.167 A 
ATOM      6  F   UNL     1     -22.358   3.647 -13.969  1.00  0.00    -0.203 F 
ATOM      7  C   UNL     1     -20.206   3.032 -14.702  1.00  0.00     0.069 A 
ENDROOT
BRANCH   1   8
ATOM      8  N   UNL     1     -18.015   2.472 -15.506  1.00  0.00    -0.322 N 
ATOM      9  C   UNL     1     -16.793   2.364 -14.867  1.00  0.00     0.263 C 
ATOM     10  O   UNL     1     -16.563   1.855 -13.778  1.00  0.00    -0.269 OA
ATOM     11  H   UNL     1     -18.021   2.951 -16.398  1.00  0.00     0.170 HD
BRANCH   9  12
ATOM     12  C   UNL     1     -15.699   2.927 -15.663  1.00  0.00     0.128 A 
ATOM     13  N   UNL     1     -13.744   3.181 -16.809  1.00  0.00    -0.277 N 
ATOM     14  C   UNL     1     -14.583   2.315 -16.090  1.00  0.00     0.051 A 
ATOM     15  N   UNL     1     -14.437   4.427 -16.883  1.00  0.00    -0.217 N 
ATOM     16  C   UNL     1     -15.632   4.322 -16.149  1.00  0.00     0.284 A 
ATOM     17  O   UNL     1     -16.532   5.133 -16.002  1.00  0.00    -0.266 OA
ATOM     18  C   UNL     1     -14.202   0.889 -15.854  1.00  0.00     0.067 C 
BRANCH  13  19
ATOM     19  C   UNL     1     -12.294   3.268 -16.499  1.00  0.00     0.173 C 
BRANCH  19  20
ATOM     20  C   UNL     1     -11.993   4.036 -15.226  1.00  0.00    -0.059 C 
ATOM     21  C   UNL     1     -12.434   3.629 -14.023  1.00  0.00     0.009 C 
ATOM     22  C   UNL     1     -11.079   5.229 -15.336  1.00  0.00     0.041 C 
ENDBRANCH  19  20
ENDBRANCH  13  19
BRANCH  15  23
ATOM     23  C   UNL     1     -14.218   5.349 -17.940  1.00  0.00     0.067 A 
ATOM     24  C   UNL     1     -14.888   5.234 -19.168  1.00  0.00     0.028 A 
ATOM     25  C   UNL     1     -13.315   6.411 -17.781  1.00  0.00     0.028 A 
ATOM     26  C   UNL     1     -14.651   6.139 -20.208  1.00  0.00     0.002 A 
ATOM     27  C   UNL     1     -13.071   7.314 -18.820  1.00  0.00     0.002 A 
ATOM     28  C   UNL     1     -13.738   7.176 -20.035  1.00  0.00     0.000 A 
ENDBRANCH  15  23
ENDBRANCH   9  12
ENDBRANCH   1   8
BRANCH   4  29
ATOM     29  O   UNL     1     -23.036   0.924 -13.599  1.00  0.00    -0.454 OA
BRANCH  29  30
ATOM     30  C   UNL     1     -23.169  -0.362 -13.106  1.00  0.00     0.138 A 
ATOM     31  C   UNL     1     -22.258  -1.374 -13.395  1.00  0.00     0.068 A 
ATOM     32  C   UNL     1     -24.334  -0.647 -12.360  1.00  0.00     0.043 A 
ATOM     33  C   UNL     1     -22.519  -2.633 -12.895  1.00  0.00     0.115 A 
ATOM     34  C   UNL     1     -25.323   0.315 -12.059  1.00  0.00     0.018 A 
ATOM     35  C   UNL     1     -24.505  -1.972 -11.908  1.00  0.00     0.078 A 
ATOM     36  N   UNL     1     -23.611  -2.945 -12.164  1.00  0.00    -0.256 NA
ATOM     37  C   UNL     1     -26.465  -0.037 -11.336  1.00  0.00     0.047 A 
ATOM     38  C   UNL     1     -25.647  -2.296 -11.181  1.00  0.00     0.075 A 
ATOM     39  C   UNL     1     -26.634  -1.347 -10.895  1.00  0.00     0.121 A 
BRANCH  39  40
ATOM     40  O   UNL     1     -27.799  -1.572 -10.210  1.00  0.00    -0.497 OA
ATOM     41  C   UNL     1     -27.687  -2.236  -8.956  1.00  0.00     0.278 C 
ENDBRANCH  39  40
ENDBRANCH  29  30
ENDBRANCH   4  29
TORSDOF 8
ENDMDL
MODEL 9
REMARK minimizedAffinity -8.91220093
REMARK CNNscore 0.202889055
REMARK CNNaffinity 7.82397842
REMARK SMILES C=C(C)Cn1c(C)c(C(=O)Nc2ccc(Oc3ccnc4cc(OC)ccc34)c(F)c2)c(=O)n1-c1ccccc1
REMARK SMILES IDX 12 1 13 2 14 3 15 4 29 5 30 6 31 7 11 8 9 9 10 10 8 12 5 13
REMARK SMILES IDX 6 14 34 15 32 16 33 17 7 18 4 19 2 20 1 21 3 22 35 23 36 24
REMARK SMILES IDX 40 25 37 26 39 27 38 28 16 29 17 30 18 31 28 32 19 33 27 34
REMARK SMILES IDX 21 35 20 36 26 37 22 38 23 39 24 40 25 41
REMARK H PARENT 11 11
ROOT
ATOM      1  C   UNL     1     -19.145   2.484 -14.976  1.00  0.00     0.044 A 
ATOM      2  C   UNL     1     -20.075   3.510 -14.776  1.00  0.00     0.030 A 
ATOM      3  C   UNL     1     -21.337   3.231 -14.240  1.00  0.00     0.052 A 
ATOM      4  C   UNL     1     -21.681   1.922 -13.909  1.00  0.00     0.163 A 
ATOM      5  C   UNL     1     -20.746   0.903 -14.078  1.00  0.00     0.167 A 
ATOM      6  F   UNL     1     -21.032  -0.355 -13.709  1.00  0.00    -0.203 F 
ATOM      7  C   UNL     1     -19.492   1.173 -14.625  1.00  0.00     0.069 A 
ENDROOT
BRANCH   1   8
ATOM      8  N   UNL     1     -17.858   2.686 -15.519  1.00  0.00    -0.322 N 
ATOM      9  C   UNL     1     -16.643   2.419 -14.913  1.00  0.00     0.263 C 
ATOM     10  O   UNL     1     -16.452   1.937 -13.804  1.00  0.00    -0.269 OA
ATOM     11  H   UNL     1     -17.825   3.113 -16.436  1.00  0.00     0.170 HD
BRANCH   9  12
ATOM     12  C   UNL     1     -15.507   2.761 -15.773  1.00  0.00     0.128 A 
ATOM     13  N   UNL     1     -13.546   2.668 -16.935  1.00  0.00    -0.277 N 
ATOM     14  C   UNL     1     -14.458   1.993 -16.108  1.00  0.00     0.051 A 
ATOM     15  N   UNL     1     -14.119   3.953 -17.182  1.00  0.00    -0.217 N 
ATOM     16  C   UNL     1     -15.311   4.064 -16.446  1.00  0.00     0.284 A 
ATOM     17  O   UNL     1     -16.129   4.969 -16.415  1.00  0.00    -0.266 OA
ATOM     18  C   UNL     1     -14.212   0.582 -15.678  1.00  0.00     0.067 C 
BRANCH  13  19
ATOM     19  C   UNL     1     -12.093   2.657 -16.633  1.00  0.00     0.173 C 
BRANCH  19  20
ATOM     20  C   UNL     1     -11.749   3.277 -15.291  1.00  0.00    -0.059 C 
ATOM     21  C   UNL     1     -11.402   2.534 -14.226  1.00  0.00     0.009 C 
ATOM     22  C   UNL     1     -11.702   4.782 -15.214  1.00  0.00     0.041 C 
ENDBRANCH  19  20
ENDBRANCH  13  19
BRANCH  15  23
ATOM     23  C   UNL     1     -13.821   4.697 -18.353  1.00  0.00     0.067 A 
ATOM     24  C   UNL     1     -14.791   5.490 -18.986  1.00  0.00     0.028 A 
ATOM     25  C   UNL     1     -12.535   4.657 -18.914  1.00  0.00     0.028 A 
ATOM     26  C   UNL     1     -14.490   6.207 -20.150  1.00  0.00     0.002 A 
ATOM     27  C   UNL     1     -12.234   5.366 -20.080  1.00  0.00     0.002 A 
ATOM     28  C   UNL     1     -13.212   6.139 -20.700  1.00  0.00     0.000 A 
ENDBRANCH  15  23
ENDBRANCH   9  12
ENDBRANCH   1   8
BRANCH   4  29
ATOM     29  O   UNL     1     -22.919   1.724 -13.350  1.00  0.00    -0.454 OA
BRANCH  29  30
ATOM     30  C   UNL     1     -23.657   0.622 -13.745  1.00  0.00     0.138 A 
ATOM     31  C   UNL     1     -23.869   0.302 -15.084  1.00  0.00     0.068 A 
ATOM     32  C   UNL     1     -24.281  -0.132 -12.728  1.00  0.00     0.043 A 
ATOM     33  C   UNL     1     -24.666  -0.788 -15.364  1.00  0.00     0.115 A 
ATOM     34  C   UNL     1     -24.147   0.153 -11.351  1.00  0.00     0.018 A 
ATOM     35  C   UNL     1     -25.086  -1.219 -13.129  1.00  0.00     0.078 A 
ATOM     36  N   UNL     1     -25.268  -1.546 -14.422  1.00  0.00    -0.256 NA
ATOM     37  C   UNL     1     -24.811  -0.618 -10.395  1.00  0.00     0.047 A 
ATOM     38  C   UNL     1     -25.729  -1.978 -12.156  1.00  0.00     0.075 A 
ATOM     39  C   UNL     1     -25.608  -1.687 -10.792  1.00  0.00     0.121 A 
BRANCH  39  40
ATOM     40  O   UNL     1     -26.218  -2.358  -9.765  1.00  0.00    -0.497 OA
ATOM     41  C   UNL     1     -27.325  -1.713  -9.146  1.00  0.00     0.278 C 
ENDBRANCH  39  40
ENDBRANCH  29  30
ENDBRANCH   4  29
TORSDOF 8
ENDMDL
