MODEL 1
REMARK minimizedAffinity -7.30382299
REMARK CNNscore 0.967271209
REMARK CNNaffinity 5.80681801
REMARK SMILES Brc1ccc2c(c1)-c1[nH]ncc1C2
REMARK SMILES IDX 1 1 2 2 3 3 4 4 5 5 6 6 7 7 8 8 9 9 10 10 11 11 12 12 13 13
REMARK H PARENT 9 14
ROOT
ATOM      1  Br  UNL     1     -26.135  -1.207 -11.156  1.00  0.00    -0.051 Br
ATOM      2  C   UNL     1     -24.532  -0.758 -12.060  1.00  0.00     0.018 A 
ATOM      3  C   UNL     1     -23.620  -1.781 -12.385  1.00  0.00     0.016 A 
ATOM      4  C   UNL     1     -22.423  -1.492 -13.053  1.00  0.00     0.006 A 
ATOM      5  C   UNL     1     -22.166  -0.171 -13.381  1.00  0.00    -0.034 A 
ATOM      6  C   UNL     1     -23.105   0.844 -13.040  1.00  0.00     0.004 A 
ATOM      7  C   UNL     1     -24.285   0.577 -12.385  1.00  0.00     0.026 A 
ATOM      8  C   UNL     1     -22.525   2.047 -13.520  1.00  0.00     0.069 A 
ATOM      9  N   UNL     1     -22.772   3.368 -13.586  1.00  0.00    -0.278 N 
ATOM     10  N   UNL     1     -21.761   4.029 -14.210  1.00  0.00    -0.183 NA
ATOM     11  C   UNL     1     -20.878   3.065 -14.530  1.00  0.00     0.139 A 
ATOM     12  C   UNL     1     -21.319   1.809 -14.115  1.00  0.00     0.002 A 
ATOM     13  C   UNL     1     -20.920   0.375 -14.112  1.00  0.00     0.075 C 
ATOM     14  H   UNL     1     -23.567   3.898 -13.248  1.00  0.00     0.190 HD
ENDROOT
TORSDOF 0
ENDMDL
MODEL 2
REMARK minimizedAffinity -5.63368368
REMARK CNNscore 0.846836567
REMARK CNNaffinity 5.18223619
REMARK SMILES Brc1ccc2c(c1)-c1[nH]ncc1C2
REMARK SMILES IDX 1 1 2 2 3 3 4 4 5 5 6 6 7 7 8 8 9 9 10 10 11 11 12 12 13 13
REMARK H PARENT 9 14
ROOT
ATOM      1  Br  UNL     1     -16.955   4.368 -16.154  1.00  0.00    -0.051 Br
ATOM      2  C   UNL     1     -18.245   3.126 -15.536  1.00  0.00     0.018 A 
ATOM      3  C   UNL     1     -17.966   1.748 -15.625  1.00  0.00     0.016 A 
ATOM      4  C   UNL     1     -18.892   0.796 -15.180  1.00  0.00     0.006 A 
ATOM      5  C   UNL     1     -20.088   1.253 -14.650  1.00  0.00    -0.034 A 
ATOM      6  C   UNL     1     -20.344   2.652 -14.571  1.00  0.00     0.004 A 
ATOM      7  C   UNL     1     -19.445   3.599 -15.004  1.00  0.00     0.026 A 
ATOM      8  C   UNL     1     -21.635   2.749 -13.989  1.00  0.00     0.069 A 
ATOM      9  N   UNL     1     -22.537   3.669 -13.604  1.00  0.00    -0.278 N 
ATOM     10  N   UNL     1     -23.650   3.086 -13.085  1.00  0.00    -0.183 NA
ATOM     11  C   UNL     1     -23.400   1.765 -13.162  1.00  0.00     0.139 A 
ATOM     12  C   UNL     1     -22.149   1.511 -13.722  1.00  0.00     0.002 A 
ATOM     13  C   UNL     1     -21.246   0.391 -14.102  1.00  0.00     0.075 C 
ATOM     14  H   UNL     1     -22.493   4.682 -13.652  1.00  0.00     0.190 HD
ENDROOT
TORSDOF 0
ENDMDL
MODEL 3
REMARK minimizedAffinity -6.37496233
REMARK CNNscore 0.83335048
REMARK CNNaffinity 5.00976753
REMARK SMILES Brc1ccc2c(c1)-c1[nH]ncc1C2
REMARK SMILES IDX 1 1 2 2 3 3 4 4 5 5 6 6 7 7 8 8 9 9 10 10 11 11 12 12 13 13
REMARK H PARENT 9 14
ROOT
ATOM      1  Br  UNL     1     -30.999  -5.068  -2.981  1.00  0.00    -0.051 Br
ATOM      2  C   UNL     1     -29.843  -3.801  -3.784  1.00  0.00     0.018 A 
ATOM      3  C   UNL     1     -29.214  -2.835  -2.972  1.00  0.00     0.016 A 
ATOM      4  C   UNL     1     -28.353  -1.880  -3.526  1.00  0.00     0.006 A 
ATOM      5  C   UNL     1     -28.139  -1.916  -4.895  1.00  0.00    -0.034 A 
ATOM      6  C   UNL     1     -28.787  -2.902  -5.692  1.00  0.00     0.004 A 
ATOM      7  C   UNL     1     -29.635  -3.847  -5.164  1.00  0.00     0.026 A 
ATOM      8  C   UNL     1     -28.345  -2.641  -7.016  1.00  0.00     0.069 A 
ATOM      9  N   UNL     1     -28.490  -3.102  -8.271  1.00  0.00    -0.278 N 
ATOM     10  N   UNL     1     -27.754  -2.375  -9.153  1.00  0.00    -0.183 NA
ATOM     11  C   UNL     1     -27.144  -1.446  -8.393  1.00  0.00     0.139 A 
ATOM     12  C   UNL     1     -27.488  -1.578  -7.048  1.00  0.00     0.002 A 
ATOM     13  C   UNL     1     -27.236  -0.968  -5.714  1.00  0.00     0.075 C 
ATOM     14  H   UNL     1     -29.047  -3.875  -8.620  1.00  0.00     0.190 HD
ENDROOT
TORSDOF 0
ENDMDL
MODEL 4
REMARK minimizedAffinity -6.38096237
REMARK CNNscore 0.770736516
REMARK CNNaffinity 5.18199682
REMARK SMILES Brc1ccc2c(c1)-c1[nH]ncc1C2
REMARK SMILES IDX 1 1 2 2 3 3 4 4 5 5 6 6 7 7 8 8 9 9 10 10 11 11 12 12 13 13
REMARK H PARENT 9 14
ROOT
ATOM      1  Br  UNL     1     -20.427   1.004 -14.368  1.00  0.00    -0.051 Br
ATOM      2  C   UNL     1     -21.901   0.214 -13.478  1.00  0.00     0.018 A 
ATOM      3  C   UNL     1     -21.771  -0.140 -12.120  1.00  0.00     0.016 A 
ATOM      4  C   UNL     1     -22.837  -0.727 -11.425  1.00  0.00     0.006 A 
ATOM      5  C   UNL     1     -24.018  -0.947 -12.114  1.00  0.00    -0.034 A 
ATOM      6  C   UNL     1     -24.122  -0.580 -13.486  1.00  0.00     0.004 A 
ATOM      7  C   UNL     1     -23.085  -0.003 -14.183  1.00  0.00     0.026 A 
ATOM      8  C   UNL     1     -25.442  -0.945 -13.858  1.00  0.00     0.069 A 
ATOM      9  N   UNL     1     -26.268  -0.927 -14.919  1.00  0.00    -0.278 N 
ATOM     10  N   UNL     1     -27.482  -1.454 -14.611  1.00  0.00    -0.183 NA
ATOM     11  C   UNL     1     -27.377  -1.798 -13.314  1.00  0.00     0.139 A 
ATOM     12  C   UNL     1     -26.115  -1.496 -12.804  1.00  0.00     0.002 A 
ATOM     13  C   UNL     1     -25.312  -1.576 -11.554  1.00  0.00     0.075 C 
ATOM     14  H   UNL     1     -26.106  -0.591 -15.863  1.00  0.00     0.190 HD
ENDROOT
TORSDOF 0
ENDMDL
MODEL 5
REMARK minimizedAffinity -6.21297169
REMARK CNNscore 0.75351429
REMARK CNNaffinity 4.58831263
REMARK SMILES Brc1ccc2c(c1)-c1[nH]ncc1C2
REMARK SMILES IDX 1 1 2 2 3 3 4 4 5 5 6 6 7 7 8 8 9 9 10 10 11 11 12 12 13 13
REMARK H PARENT 9 14
ROOT
ATOM      1  Br  UNL     1     -29.235  -2.804  -1.479  1.00  0.00    -0.051 Br
ATOM      2  C   UNL     1     -29.246  -3.234  -3.324  1.00  0.00     0.018 A 
ATOM      3  C   UNL     1     -30.062  -4.290  -3.776  1.00  0.00     0.016 A 
ATOM      4  C   UNL     1     -30.099  -4.640  -5.132  1.00  0.00     0.006 A 
ATOM      5  C   UNL     1     -29.310  -3.916  -6.011  1.00  0.00    -0.034 A 
ATOM      6  C   UNL     1     -28.495  -2.853  -5.527  1.00  0.00     0.004 A 
ATOM      7  C   UNL     1     -28.447  -2.497  -4.199  1.00  0.00     0.026 A 
ATOM      8  C   UNL     1     -27.840  -2.349  -6.681  1.00  0.00     0.069 A 
ATOM      9  N   UNL     1     -26.959  -1.400  -7.046  1.00  0.00    -0.278 N 
ATOM     10  N   UNL     1     -26.726  -1.431  -8.385  1.00  0.00    -0.183 NA
ATOM     11  C   UNL     1     -27.499  -2.436  -8.836  1.00  0.00     0.139 A 
ATOM     12  C   UNL     1     -28.213  -3.037  -7.800  1.00  0.00     0.002 A 
ATOM     13  C   UNL     1     -29.194  -4.125  -7.537  1.00  0.00     0.075 C 
ATOM     14  H   UNL     1     -26.476  -0.709  -6.482  1.00  0.00     0.190 HD
ENDROOT
TORSDOF 0
ENDMDL
MODEL 6
REMARK minimizedAffinity -6.41299057
REMARK CNNscore 0.683730483
REMARK CNNaffinity 4.92267179
REMARK SMILES Brc1ccc2c(c1)-c1[nH]ncc1C2
REMARK SMILES IDX 1 1 2 2 3 3 4 4 5 5 6 6 7 7 8 8 9 9 10 10 11 11 12 12 13 13
REMARK H PARENT 9 14
ROOT
ATOM      1  Br  UNL     1     -26.897  -1.863  -9.325  1.00  0.00    -0.051 Br
ATOM      2  C   UNL     1     -27.579  -1.852  -7.558  1.00  0.00     0.018 A 
ATOM      3  C   UNL     1     -27.373  -0.715  -6.751  1.00  0.00     0.016 A 
ATOM      4  C   UNL     1     -27.860  -0.667  -5.439  1.00  0.00     0.006 A 
ATOM      5  C   UNL     1     -28.550  -1.770  -4.962  1.00  0.00    -0.034 A 
ATOM      6  C   UNL     1     -28.744  -2.906  -5.798  1.00  0.00     0.004 A 
ATOM      7  C   UNL     1     -28.272  -2.969  -7.089  1.00  0.00     0.026 A 
ATOM      8  C   UNL     1     -29.473  -3.823  -4.997  1.00  0.00     0.069 A 
ATOM      9  N   UNL     1     -30.015  -5.053  -5.053  1.00  0.00    -0.278 N 
ATOM     10  N   UNL     1     -30.619  -5.381  -3.881  1.00  0.00    -0.183 NA
ATOM     11  C   UNL     1     -30.433  -4.304  -3.095  1.00  0.00     0.139 A 
ATOM     12  C   UNL     1     -29.719  -3.305  -3.757  1.00  0.00     0.002 A 
ATOM     13  C   UNL     1     -29.171  -1.936  -3.557  1.00  0.00     0.075 C 
ATOM     14  H   UNL     1     -30.026  -5.724  -5.813  1.00  0.00     0.190 HD
ENDROOT
TORSDOF 0
ENDMDL
MODEL 7
REMARK minimizedAffinity -5.20629835
REMARK CNNscore 0.630682588
REMARK CNNaffinity 4.82180643
REMARK SMILES Brc1ccc2c(c1)-c1[nH]ncc1C2
REMARK SMILES IDX 1 1 2 2 3 3 4 4 5 5 6 6 7 7 8 8 9 9 10 10 11 11 12 12 13 13
REMARK H PARENT 9 14
ROOT
ATOM      1  Br  UNL     1     -27.788  -1.887 -13.470  1.00  0.00    -0.051 Br
ATOM      2  C   UNL     1     -26.047  -1.482 -12.843  1.00  0.00     0.018 A 
ATOM      3  C   UNL     1     -25.664  -1.915 -11.557  1.00  0.00     0.016 A 
ATOM      4  C   UNL     1     -24.387  -1.636 -11.055  1.00  0.00     0.006 A 
ATOM      5  C   UNL     1     -23.514  -0.923 -11.862  1.00  0.00    -0.034 A 
ATOM      6  C   UNL     1     -23.927  -0.497 -13.156  1.00  0.00     0.004 A 
ATOM      7  C   UNL     1     -25.177  -0.763 -13.665  1.00  0.00     0.026 A 
ATOM      8  C   UNL     1     -22.803   0.190 -13.685  1.00  0.00     0.069 A 
ATOM      9  N   UNL     1     -22.410   0.848 -14.790  1.00  0.00    -0.278 N 
ATOM     10  N   UNL     1     -21.133   1.300 -14.669  1.00  0.00    -0.183 NA
ATOM     11  C   UNL     1     -20.750   0.894 -13.444  1.00  0.00     0.139 A 
ATOM     12  C   UNL     1     -21.767   0.196 -12.794  1.00  0.00     0.002 A 
ATOM     13  C   UNL     1     -22.068  -0.505 -11.516  1.00  0.00     0.075 C 
ATOM     14  H   UNL     1     -22.916   1.037 -15.648  1.00  0.00     0.190 HD
ENDROOT
TORSDOF 0
ENDMDL
MODEL 8
REMARK minimizedAffinity -6.40719795
REMARK CNNscore 0.624567807
REMARK CNNaffinity 5.14205599
REMARK SMILES Brc1ccc2c(c1)-c1[nH]ncc1C2
REMARK SMILES IDX 1 1 2 2 3 3 4 4 5 5 6 6 7 7 8 8 9 9 10 10 11 11 12 12 13 13
REMARK H PARENT 9 14
ROOT
ATOM      1  Br  UNL     1     -21.542   3.729 -14.341  1.00  0.00    -0.051 Br
ATOM      2  C   UNL     1     -21.963   1.946 -13.859  1.00  0.00     0.018 A 
ATOM      3  C   UNL     1     -21.012   0.932 -14.090  1.00  0.00     0.016 A 
ATOM      4  C   UNL     1     -21.284  -0.399 -13.750  1.00  0.00     0.006 A 
ATOM      5  C   UNL     1     -22.514  -0.685 -13.179  1.00  0.00    -0.034 A 
ATOM      6  C   UNL     1     -23.456   0.359 -12.956  1.00  0.00     0.004 A 
ATOM      7  C   UNL     1     -23.205   1.671 -13.285  1.00  0.00     0.026 A 
ATOM      8  C   UNL     1     -24.577  -0.286 -12.371  1.00  0.00     0.069 A 
ATOM      9  N   UNL     1     -25.805  -0.012 -11.895  1.00  0.00    -0.278 N 
ATOM     10  N   UNL     1     -26.422  -1.135 -11.443  1.00  0.00    -0.183 NA
ATOM     11  C   UNL     1     -25.527  -2.118 -11.656  1.00  0.00     0.139 A 
ATOM     12  C   UNL     1     -24.357  -1.628 -12.236  1.00  0.00     0.002 A 
ATOM     13  C   UNL     1     -23.024  -2.071 -12.727  1.00  0.00     0.075 C 
ATOM     14  H   UNL     1     -26.296   0.873 -11.837  1.00  0.00     0.190 HD
ENDROOT
TORSDOF 0
ENDMDL
MODEL 9
REMARK minimizedAffinity -6.91212988
REMARK CNNscore 0.586720705
REMARK CNNaffinity 4.86157465
REMARK SMILES Brc1ccc2c(c1)-c1[nH]ncc1C2
REMARK SMILES IDX 1 1 2 2 3 3 4 4 5 5 6 6 7 7 8 8 9 9 10 10 11 11 12 12 13 13
REMARK H PARENT 9 14
ROOT
ATOM      1  Br  UNL     1     -21.137   0.634 -14.047  1.00  0.00    -0.051 Br
ATOM      2  C   UNL     1     -22.884  -0.020 -13.721  1.00  0.00     0.018 A 
ATOM      3  C   UNL     1     -23.737  -0.271 -14.814  1.00  0.00     0.016 A 
ATOM      4  C   UNL     1     -25.036  -0.754 -14.617  1.00  0.00     0.006 A 
ATOM      5  C   UNL     1     -25.455  -0.978 -13.315  1.00  0.00    -0.034 A 
ATOM      6  C   UNL     1     -24.573  -0.717 -12.228  1.00  0.00     0.004 A 
ATOM      7  C   UNL     1     -23.293  -0.242 -12.405  1.00  0.00     0.026 A 
ATOM      8  C   UNL     1     -25.320  -1.052 -11.069  1.00  0.00     0.069 A 
ATOM      9  N   UNL     1     -25.205  -1.085  -9.729  1.00  0.00    -0.278 N 
ATOM     10  N   UNL     1     -26.348  -1.532  -9.145  1.00  0.00    -0.183 NA
ATOM     11  C   UNL     1     -27.177  -1.778 -10.178  1.00  0.00     0.139 A 
ATOM     12  C   UNL     1     -26.571  -1.490 -11.400  1.00  0.00     0.002 A 
ATOM     13  C   UNL     1     -26.835  -1.505 -12.865  1.00  0.00     0.075 C 
ATOM     14  H   UNL     1     -24.421  -0.831  -9.138  1.00  0.00     0.190 HD
ENDROOT
TORSDOF 0
ENDMDL
