MODEL 1
REMARK VINA RESULT:     -11.0      0.000      0.000
REMARK SMILES C=C(C)Cn1c(C)c(C(=O)Nc2ccc(Oc3ccnc4cc(OC)ccc34)c(F)c2)c(=O)n1-c1ccccc1
REMARK SMILES IDX 12 1 13 2 14 3 15 4 29 5 30 6 31 7 11 8 9 9 10 10 8 12 5 13
REMARK SMILES IDX 6 14 34 15 32 16 33 17 7 18 4 19 2 20 1 21 3 22 35 23 36 24
REMARK SMILES IDX 40 25 37 26 39 27 38 28 16 29 17 30 18 31 28 32 19 33 27 34
REMARK SMILES IDX 21 35 20 36 26 37 22 38 23 39 24 40 25 41
REMARK H PARENT 11 11
ROOT
ATOM      1  C   UNL     1     -24.852  -1.576 -11.022  1.00  0.00     0.044 A 
ATOM      2  C   UNL     1     -25.350  -1.451 -12.323  1.00  0.00     0.030 A 
ATOM      3  C   UNL     1     -24.559  -0.899 -13.338  1.00  0.00     0.052 A 
ATOM      4  C   UNL     1     -23.267  -0.461 -13.055  1.00  0.00     0.163 A 
ATOM      5  C   UNL     1     -22.757  -0.613 -11.767  1.00  0.00     0.167 A 
ATOM      6  F   UNL     1     -21.495  -0.256 -11.485  1.00  0.00    -0.203 F 
ATOM      7  C   UNL     1     -23.546  -1.149 -10.750  1.00  0.00     0.069 A 
ENDROOT
BRANCH   1   8
ATOM      8  N   UNL     1     -25.591  -2.114  -9.947  1.00  0.00    -0.322 N 
ATOM      9  C   UNL     1     -26.886  -1.793  -9.578  1.00  0.00     0.263 C 
ATOM     10  O   UNL     1     -27.643  -1.001 -10.125  1.00  0.00    -0.269 OA
ATOM     11  H   UNL     1     -25.102  -2.776  -9.358  1.00  0.00     0.170 HD
BRANCH   9  12
ATOM     12  C   UNL     1     -27.332  -2.547  -8.404  1.00  0.00     0.128 A 
ATOM     13  N   UNL     1     -28.135  -3.094  -6.341  1.00  0.00    -0.277 N 
ATOM     14  C   UNL     1     -27.843  -2.071  -7.257  1.00  0.00     0.051 A 
ATOM     15  N   UNL     1     -27.831  -4.318  -7.010  1.00  0.00    -0.217 N 
ATOM     16  C   UNL     1     -27.291  -4.020  -8.273  1.00  0.00     0.284 A 
ATOM     17  O   UNL     1     -26.951  -4.769  -9.175  1.00  0.00    -0.266 OA
ATOM     18  C   UNL     1     -28.088  -0.636  -6.918  1.00  0.00     0.067 C 
BRANCH  13  19
ATOM     19  C   UNL     1     -27.684  -3.001  -4.929  1.00  0.00     0.173 C 
BRANCH  19  20
ATOM     20  C   UNL     1     -28.820  -3.067  -3.925  1.00  0.00    -0.059 C 
ATOM     21  C   UNL     1     -30.079  -3.371  -4.287  1.00  0.00     0.009 C 
ATOM     22  C   UNL     1     -28.471  -2.884  -2.470  1.00  0.00     0.041 C 
ENDBRANCH  19  20
ENDBRANCH  13  19
BRANCH  15  23
ATOM     23  C   UNL     1     -28.473  -5.539  -6.674  1.00  0.00     0.067 A 
ATOM     24  C   UNL     1     -28.063  -6.307  -5.573  1.00  0.00     0.028 A 
ATOM     25  C   UNL     1     -29.546  -6.013  -7.444  1.00  0.00     0.028 A 
ATOM     26  C   UNL     1     -28.693  -7.517  -5.262  1.00  0.00     0.002 A 
ATOM     27  C   UNL     1     -30.174  -7.224  -7.139  1.00  0.00     0.002 A 
ATOM     28  C   UNL     1     -29.746  -7.977  -6.049  1.00  0.00     0.000 A 
ENDBRANCH  15  23
ENDBRANCH   9  12
ENDBRANCH   1   8
BRANCH   4  29
ATOM     29  O   UNL     1     -22.531   0.032 -14.103  1.00  0.00    -0.454 OA
BRANCH  29  30
ATOM     30  C   UNL     1     -22.103   1.346 -14.053  1.00  0.00     0.138 A 
ATOM     31  C   UNL     1     -22.948   2.398 -13.708  1.00  0.00     0.068 A 
ATOM     32  C   UNL     1     -20.777   1.607 -14.463  1.00  0.00     0.043 A 
ATOM     33  C   UNL     1     -22.429   3.675 -13.743  1.00  0.00     0.115 A 
ATOM     34  C   UNL     1     -19.872   0.600 -14.865  1.00  0.00     0.018 A 
ATOM     35  C   UNL     1     -20.355   2.953 -14.473  1.00  0.00     0.078 A 
ATOM     36  N   UNL     1     -21.162   3.967 -14.113  1.00  0.00    -0.256 NA
ATOM     37  C   UNL     1     -18.580   0.926 -15.283  1.00  0.00     0.047 A 
ATOM     38  C   UNL     1     -19.059   3.251 -14.884  1.00  0.00     0.075 A 
ATOM     39  C   UNL     1     -18.167   2.255 -15.297  1.00  0.00     0.121 A 
BRANCH  39  40
ATOM     40  O   UNL     1     -16.885   2.449 -15.739  1.00  0.00    -0.497 OA
ATOM     41  C   UNL     1     -16.379   3.778 -15.673  1.00  0.00     0.278 C 
ENDBRANCH  39  40
ENDBRANCH  29  30
ENDBRANCH   4  29
TORSDOF 8
ENDMDL
MODEL 2
REMARK VINA RESULT:     -10.4      1.150      2.965
REMARK SMILES C=C(C)Cn1c(C)c(C(=O)Nc2ccc(Oc3ccnc4cc(OC)ccc34)c(F)c2)c(=O)n1-c1ccccc1
REMARK SMILES IDX 12 1 13 2 14 3 15 4 29 5 30 6 31 7 11 8 9 9 10 10 8 12 5 13
REMARK SMILES IDX 6 14 34 15 32 16 33 17 7 18 4 19 2 20 1 21 3 22 35 23 36 24
REMARK SMILES IDX 40 25 37 26 39 27 38 28 16 29 17 30 18 31 28 32 19 33 27 34
REMARK SMILES IDX 21 35 20 36 26 37 22 38 23 39 24 40 25 41
REMARK H PARENT 11 11
ROOT
ATOM      1  C   UNL     1     -24.666  -1.670 -10.866  1.00  0.00     0.044 A 
ATOM      2  C   UNL     1     -23.343  -1.275 -10.638  1.00  0.00     0.030 A 
ATOM      3  C   UNL     1     -22.551  -0.801 -11.690  1.00  0.00     0.052 A 
ATOM      4  C   UNL     1     -23.075  -0.725 -12.979  1.00  0.00     0.163 A 
ATOM      5  C   UNL     1     -24.402  -1.088 -13.203  1.00  0.00     0.167 A 
ATOM      6  F   UNL     1     -24.948  -0.966 -14.423  1.00  0.00    -0.203 F 
ATOM      7  C   UNL     1     -25.190  -1.575 -12.161  1.00  0.00     0.069 A 
ENDROOT
BRANCH   1   8
ATOM      8  N   UNL     1     -25.521  -2.166  -9.859  1.00  0.00    -0.322 N 
ATOM      9  C   UNL     1     -26.834  -1.801  -9.621  1.00  0.00     0.263 C 
ATOM     10  O   UNL     1     -27.511  -0.998 -10.250  1.00  0.00    -0.269 OA
ATOM     11  H   UNL     1     -25.110  -2.831  -9.216  1.00  0.00     0.170 HD
BRANCH   9  12
ATOM     12  C   UNL     1     -27.413  -2.520  -8.483  1.00  0.00     0.128 A 
ATOM     13  N   UNL     1     -28.115  -4.174  -7.079  1.00  0.00    -0.277 N 
ATOM     14  C   UNL     1     -27.454  -3.846  -8.273  1.00  0.00     0.051 A 
ATOM     15  N   UNL     1     -28.459  -2.931  -6.467  1.00  0.00    -0.217 N 
ATOM     16  C   UNL     1     -28.079  -1.885  -7.325  1.00  0.00     0.284 A 
ATOM     17  O   UNL     1     -28.144  -0.677  -7.162  1.00  0.00    -0.266 OA
ATOM     18  C   UNL     1     -26.899  -4.908  -9.166  1.00  0.00     0.067 C 
BRANCH  13  19
ATOM     19  C   UNL     1     -29.171  -5.218  -7.056  1.00  0.00     0.173 C 
BRANCH  19  20
ATOM     20  C   UNL     1     -28.757  -6.482  -6.326  1.00  0.00    -0.059 C 
ATOM     21  C   UNL     1     -28.731  -6.558  -4.984  1.00  0.00     0.009 C 
ATOM     22  C   UNL     1     -28.473  -7.704  -7.161  1.00  0.00     0.041 C 
ENDBRANCH  19  20
ENDBRANCH  13  19
BRANCH  15  23
ATOM     23  C   UNL     1     -28.622  -2.803  -5.062  1.00  0.00     0.067 A 
ATOM     24  C   UNL     1     -27.550  -2.455  -4.226  1.00  0.00     0.028 A 
ATOM     25  C   UNL     1     -29.874  -3.025  -4.468  1.00  0.00     0.028 A 
ATOM     26  C   UNL     1     -27.719  -2.348  -2.841  1.00  0.00     0.002 A 
ATOM     27  C   UNL     1     -30.044  -2.925  -3.084  1.00  0.00     0.002 A 
ATOM     28  C   UNL     1     -28.966  -2.589  -2.271  1.00  0.00     0.000 A 
ENDBRANCH  15  23
ENDBRANCH   9  12
ENDBRANCH   1   8
BRANCH   4  29
ATOM     29  O   UNL     1     -22.259  -0.213 -13.956  1.00  0.00    -0.454 OA
BRANCH  29  30
ATOM     30  C   UNL     1     -21.998   1.145 -13.958  1.00  0.00     0.138 A 
ATOM     31  C   UNL     1     -22.958   2.094 -13.615  1.00  0.00     0.068 A 
ATOM     32  C   UNL     1     -20.728   1.556 -14.419  1.00  0.00     0.043 A 
ATOM     33  C   UNL     1     -22.605   3.425 -13.705  1.00  0.00     0.115 A 
ATOM     34  C   UNL     1     -19.716   0.657 -14.822  1.00  0.00     0.018 A 
ATOM     35  C   UNL     1     -20.479   2.943 -14.482  1.00  0.00     0.078 A 
ATOM     36  N   UNL     1     -21.397   3.860 -14.124  1.00  0.00    -0.256 NA
ATOM     37  C   UNL     1     -18.489   1.128 -15.292  1.00  0.00     0.047 A 
ATOM     38  C   UNL     1     -19.244   3.387 -14.945  1.00  0.00     0.075 A 
ATOM     39  C   UNL     1     -18.246   2.497 -15.358  1.00  0.00     0.121 A 
BRANCH  39  40
ATOM     40  O   UNL     1     -17.013   2.836 -15.848  1.00  0.00    -0.497 OA
ATOM     41  C   UNL     1     -16.625   4.200 -15.722  1.00  0.00     0.278 C 
ENDBRANCH  39  40
ENDBRANCH  29  30
ENDBRANCH   4  29
TORSDOF 8
ENDMDL
MODEL 3
REMARK VINA RESULT:      -8.5      3.964     14.830
REMARK SMILES C=C(C)Cn1c(C)c(C(=O)Nc2ccc(Oc3ccnc4cc(OC)ccc34)c(F)c2)c(=O)n1-c1ccccc1
REMARK SMILES IDX 12 1 13 2 14 3 15 4 29 5 30 6 31 7 11 8 9 9 10 10 8 12 5 13
REMARK SMILES IDX 6 14 34 15 32 16 33 17 7 18 4 19 2 20 1 21 3 22 35 23 36 24
REMARK SMILES IDX 40 25 37 26 39 27 38 28 16 29 17 30 18 31 28 32 19 33 27 34
REMARK SMILES IDX 21 35 20 36 26 37 22 38 23 39 24 40 25 41
REMARK H PARENT 11 11
ROOT
ATOM      1  C   UNL     1     -19.181   2.502 -14.922  1.00  0.00     0.044 A 
ATOM      2  C   UNL     1     -19.553   1.204 -14.555  1.00  0.00     0.030 A 
ATOM      3  C   UNL     1     -20.795   0.962 -13.959  1.00  0.00     0.052 A 
ATOM      4  C   UNL     1     -21.671   2.019 -13.717  1.00  0.00     0.163 A 
ATOM      5  C   UNL     1     -21.316   3.308 -14.109  1.00  0.00     0.167 A 
ATOM      6  F   UNL     1     -22.167   4.332 -13.944  1.00  0.00    -0.203 F 
ATOM      7  C   UNL     1     -20.074   3.556 -14.691  1.00  0.00     0.069 A 
ENDROOT
BRANCH   1   8
ATOM      8  N   UNL     1     -17.943   2.825 -15.519  1.00  0.00    -0.322 N 
ATOM      9  C   UNL     1     -16.681   2.491 -15.060  1.00  0.00     0.263 C 
ATOM     10  O   UNL     1     -16.397   1.836 -14.066  1.00  0.00    -0.269 OA
ATOM     11  H   UNL     1     -17.988   3.399 -16.351  1.00  0.00     0.170 HD
BRANCH   9  12
ATOM     12  C   UNL     1     -15.621   3.000 -15.935  1.00  0.00     0.128 A 
ATOM     13  N   UNL     1     -13.758   3.151 -17.242  1.00  0.00    -0.277 N 
ATOM     14  C   UNL     1     -14.593   2.325 -16.474  1.00  0.00     0.051 A 
ATOM     15  N   UNL     1     -14.362   4.445 -17.222  1.00  0.00    -0.217 N 
ATOM     16  C   UNL     1     -15.493   4.402 -16.389  1.00  0.00     0.284 A 
ATOM     17  O   UNL     1     -16.316   5.270 -16.142  1.00  0.00    -0.266 OA
ATOM     18  C   UNL     1     -14.300   0.868 -16.310  1.00  0.00     0.067 C 
BRANCH  13  19
ATOM     19  C   UNL     1     -12.285   3.125 -17.058  1.00  0.00     0.173 C 
BRANCH  19  20
ATOM     20  C   UNL     1     -11.849   3.374 -15.627  1.00  0.00    -0.059 C 
ATOM     21  C   UNL     1     -11.313   2.406 -14.863  1.00  0.00     0.009 C 
ATOM     22  C   UNL     1     -11.935   4.787 -15.111  1.00  0.00     0.041 C 
ENDBRANCH  19  20
ENDBRANCH  13  19
BRANCH  15  23
ATOM     23  C   UNL     1     -14.166   5.383 -18.270  1.00  0.00     0.067 A 
ATOM     24  C   UNL     1     -14.819   5.251 -19.506  1.00  0.00     0.028 A 
ATOM     25  C   UNL     1     -13.306   6.477 -18.094  1.00  0.00     0.028 A 
ATOM     26  C   UNL     1     -14.606   6.173 -20.537  1.00  0.00     0.002 A 
ATOM     27  C   UNL     1     -13.086   7.395 -19.125  1.00  0.00     0.002 A 
ATOM     28  C   UNL     1     -13.735   7.242 -20.347  1.00  0.00     0.000 A 
ENDBRANCH  15  23
ENDBRANCH   9  12
ENDBRANCH   1   8
BRANCH   4  29
ATOM     29  O   UNL     1     -22.889   1.707 -13.167  1.00  0.00    -0.454 OA
BRANCH  29  30
ATOM     30  C   UNL     1     -23.575   0.608 -13.652  1.00  0.00     0.138 A 
ATOM     31  C   UNL     1     -23.669   0.322 -15.012  1.00  0.00     0.068 A 
ATOM     32  C   UNL     1     -24.270  -0.184 -12.711  1.00  0.00     0.043 A 
ATOM     33  C   UNL     1     -24.424  -0.770 -15.387  1.00  0.00     0.115 A 
ATOM     34  C   UNL     1     -24.256   0.065 -11.321  1.00  0.00     0.018 A 
ATOM     35  C   UNL     1     -25.022  -1.269 -13.207  1.00  0.00     0.078 A 
ATOM     36  N   UNL     1     -25.091  -1.562 -14.519  1.00  0.00    -0.256 NA
ATOM     37  C   UNL     1     -24.985  -0.741 -10.444  1.00  0.00     0.047 A 
ATOM     38  C   UNL     1     -25.732  -2.064 -12.312  1.00  0.00     0.075 A 
ATOM     39  C   UNL     1     -25.730  -1.810 -10.936  1.00  0.00     0.121 A 
BRANCH  39  40
ATOM     40  O   UNL     1     -26.413  -2.517  -9.982  1.00  0.00    -0.497 OA
ATOM     41  C   UNL     1     -27.415  -1.813  -9.256  1.00  0.00     0.278 C 
ENDBRANCH  39  40
ENDBRANCH  29  30
ENDBRANCH   4  29
TORSDOF 8
ENDMDL
MODEL 4
REMARK VINA RESULT:      -8.5      7.338     12.596
REMARK SMILES C=C(C)Cn1c(C)c(C(=O)Nc2ccc(Oc3ccnc4cc(OC)ccc34)c(F)c2)c(=O)n1-c1ccccc1
REMARK SMILES IDX 12 1 13 2 14 3 15 4 29 5 30 6 31 7 11 8 9 9 10 10 8 12 5 13
REMARK SMILES IDX 6 14 34 15 32 16 33 17 7 18 4 19 2 20 1 21 3 22 35 23 36 24
REMARK SMILES IDX 40 25 37 26 39 27 38 28 16 29 17 30 18 31 28 32 19 33 27 34
REMARK SMILES IDX 21 35 20 36 26 37 22 38 23 39 24 40 25 41
REMARK H PARENT 11 11
ROOT
ATOM      1  C   UNL     1     -15.978  -0.761 -13.770  1.00  0.00     0.044 A 
ATOM      2  C   UNL     1     -16.667  -1.405 -14.805  1.00  0.00     0.030 A 
ATOM      3  C   UNL     1     -17.685  -0.743 -15.500  1.00  0.00     0.052 A 
ATOM      4  C   UNL     1     -18.027   0.565 -15.161  1.00  0.00     0.163 A 
ATOM      5  C   UNL     1     -17.322   1.218 -14.153  1.00  0.00     0.167 A 
ATOM      6  F   UNL     1     -17.591   2.498 -13.850  1.00  0.00    -0.203 F 
ATOM      7  C   UNL     1     -16.317   0.559 -13.447  1.00  0.00     0.069 A 
ENDROOT
BRANCH   1   8
ATOM      8  N   UNL     1     -14.948  -1.365 -13.019  1.00  0.00    -0.322 N 
ATOM      9  C   UNL     1     -14.947  -2.635 -12.470  1.00  0.00     0.263 C 
ATOM     10  O   UNL     1     -15.826  -3.483 -12.549  1.00  0.00    -0.269 OA
ATOM     11  H   UNL     1     -14.140  -0.787 -12.828  1.00  0.00     0.170 HD
BRANCH   9  12
ATOM     12  C   UNL     1     -13.706  -2.926 -11.746  1.00  0.00     0.128 A 
ATOM     13  N   UNL     1     -11.508  -3.235 -11.226  1.00  0.00    -0.277 N 
ATOM     14  C   UNL     1     -12.445  -2.856 -12.200  1.00  0.00     0.051 A 
ATOM     15  N   UNL     1     -12.260  -3.505 -10.042  1.00  0.00    -0.217 N 
ATOM     16  C   UNL     1     -13.628  -3.366 -10.336  1.00  0.00     0.284 A 
ATOM     17  O   UNL     1     -14.598  -3.455  -9.601  1.00  0.00    -0.266 OA
ATOM     18  C   UNL     1     -12.012  -2.447 -13.571  1.00  0.00     0.067 C 
BRANCH  13  19
ATOM     19  C   UNL     1     -10.432  -4.209 -11.542  1.00  0.00     0.173 C 
BRANCH  19  20
ATOM     20  C   UNL     1     -10.887  -5.655 -11.479  1.00  0.00    -0.059 C 
ATOM     21  C   UNL     1     -11.721  -6.184 -12.391  1.00  0.00     0.009 C 
ATOM     22  C   UNL     1     -10.284  -6.525 -10.407  1.00  0.00     0.041 C 
ENDBRANCH  19  20
ENDBRANCH  13  19
BRANCH  15  23
ATOM     23  C   UNL     1     -11.696  -3.376  -8.746  1.00  0.00     0.067 A 
ATOM     24  C   UNL     1     -11.000  -2.220  -8.359  1.00  0.00     0.028 A 
ATOM     25  C   UNL     1     -11.821  -4.413  -7.810  1.00  0.00     0.028 A 
ATOM     26  C   UNL     1     -10.434  -2.111  -7.084  1.00  0.00     0.002 A 
ATOM     27  C   UNL     1     -11.251  -4.310  -6.537  1.00  0.00     0.002 A 
ATOM     28  C   UNL     1     -10.556  -3.160  -6.175  1.00  0.00     0.000 A 
ENDBRANCH  15  23
ENDBRANCH   9  12
ENDBRANCH   1   8
BRANCH   4  29
ATOM     29  O   UNL     1     -19.006   1.169 -15.910  1.00  0.00    -0.454 OA
BRANCH  29  30
ATOM     30  C   UNL     1     -19.873   2.046 -15.285  1.00  0.00     0.138 A 
ATOM     31  C   UNL     1     -19.713   3.428 -15.341  1.00  0.00     0.068 A 
ATOM     32  C   UNL     1     -20.897   1.482 -14.492  1.00  0.00     0.043 A 
ATOM     33  C   UNL     1     -20.606   4.206 -14.635  1.00  0.00     0.115 A 
ATOM     34  C   UNL     1     -21.100   0.092 -14.353  1.00  0.00     0.018 A 
ATOM     35  C   UNL     1     -21.746   2.373 -13.802  1.00  0.00     0.078 A 
ATOM     36  N   UNL     1     -21.608   3.709 -13.878  1.00  0.00    -0.256 NA
ATOM     37  C   UNL     1     -22.117  -0.403 -13.533  1.00  0.00     0.047 A 
ATOM     38  C   UNL     1     -22.758   1.855 -12.999  1.00  0.00     0.075 A 
ATOM     39  C   UNL     1     -22.951   0.477 -12.849  1.00  0.00     0.121 A 
BRANCH  39  40
ATOM     40  O   UNL     1     -23.900  -0.127 -12.067  1.00  0.00    -0.497 OA
ATOM     41  C   UNL     1     -23.487  -1.269 -11.325  1.00  0.00     0.278 C 
ENDBRANCH  39  40
ENDBRANCH  29  30
ENDBRANCH   4  29
TORSDOF 8
ENDMDL
MODEL 5
REMARK VINA RESULT:      -8.3     11.370     16.925
REMARK SMILES C=C(C)Cn1c(C)c(C(=O)Nc2ccc(Oc3ccnc4cc(OC)ccc34)c(F)c2)c(=O)n1-c1ccccc1
REMARK SMILES IDX 12 1 13 2 14 3 15 4 29 5 30 6 31 7 11 8 9 9 10 10 8 12 5 13
REMARK SMILES IDX 6 14 34 15 32 16 33 17 7 18 4 19 2 20 1 21 3 22 35 23 36 24
REMARK SMILES IDX 40 25 37 26 39 27 38 28 16 29 17 30 18 31 28 32 19 33 27 34
REMARK SMILES IDX 21 35 20 36 26 37 22 38 23 39 24 40 25 41
REMARK H PARENT 11 11
ROOT
ATOM      1  C   UNL     1     -13.741   0.844 -13.570  1.00  0.00     0.044 A 
ATOM      2  C   UNL     1     -14.824   0.859 -12.684  1.00  0.00     0.030 A 
ATOM      3  C   UNL     1     -15.454  -0.334 -12.310  1.00  0.00     0.052 A 
ATOM      4  C   UNL     1     -15.009  -1.549 -12.827  1.00  0.00     0.163 A 
ATOM      5  C   UNL     1     -13.912  -1.570 -13.685  1.00  0.00     0.167 A 
ATOM      6  F   UNL     1     -13.427  -2.733 -14.146  1.00  0.00    -0.203 F 
ATOM      7  C   UNL     1     -13.290  -0.384 -14.071  1.00  0.00     0.069 A 
ENDROOT
BRANCH   1   8
ATOM      8  N   UNL     1     -13.062   2.004 -13.999  1.00  0.00    -0.322 N 
ATOM      9  C   UNL     1     -12.382   2.916 -13.211  1.00  0.00     0.263 C 
ATOM     10  O   UNL     1     -12.221   2.879 -11.998  1.00  0.00    -0.269 OA
ATOM     11  H   UNL     1     -13.118   2.211 -14.988  1.00  0.00     0.170 HD
BRANCH   9  12
ATOM     12  C   UNL     1     -11.802   4.007 -13.999  1.00  0.00     0.128 A 
ATOM     13  N   UNL     1     -10.327   5.455 -14.961  1.00  0.00    -0.277 N 
ATOM     14  C   UNL     1     -10.506   4.325 -14.149  1.00  0.00     0.051 A 
ATOM     15  N   UNL     1     -11.632   5.832 -15.403  1.00  0.00    -0.217 N 
ATOM     16  C   UNL     1     -12.575   4.986 -14.794  1.00  0.00     0.284 A 
ATOM     17  O   UNL     1     -13.786   4.932 -14.940  1.00  0.00    -0.266 OA
ATOM     18  C   UNL     1      -9.339   3.616 -13.541  1.00  0.00     0.067 C 
BRANCH  13  19
ATOM     19  C   UNL     1      -9.445   6.570 -14.530  1.00  0.00     0.173 C 
BRANCH  19  20
ATOM     20  C   UNL     1      -9.941   7.289 -13.290  1.00  0.00    -0.059 C 
ATOM     21  C   UNL     1     -10.869   8.260 -13.349  1.00  0.00     0.009 C 
ATOM     22  C   UNL     1      -9.435   6.802 -11.957  1.00  0.00     0.041 C 
ENDBRANCH  19  20
ENDBRANCH  13  19
BRANCH  15  23
ATOM     23  C   UNL     1     -11.841   6.532 -16.620  1.00  0.00     0.067 A 
ATOM     24  C   UNL     1     -11.976   7.929 -16.650  1.00  0.00     0.028 A 
ATOM     25  C   UNL     1     -11.920   5.837 -17.836  1.00  0.00     0.028 A 
ATOM     26  C   UNL     1     -12.199   8.607 -17.854  1.00  0.00     0.002 A 
ATOM     27  C   UNL     1     -12.149   6.511 -19.039  1.00  0.00     0.002 A 
ATOM     28  C   UNL     1     -12.291   7.895 -19.048  1.00  0.00     0.000 A 
ENDBRANCH  15  23
ENDBRANCH   9  12
ENDBRANCH   1   8
BRANCH   4  29
ATOM     29  O   UNL     1     -15.644  -2.684 -12.387  1.00  0.00    -0.454 OA
BRANCH  29  30
ATOM     30  C   UNL     1     -14.996  -3.496 -11.475  1.00  0.00     0.138 A 
ATOM     31  C   UNL     1     -14.586  -3.042 -10.224  1.00  0.00     0.068 A 
ATOM     32  C   UNL     1     -14.672  -4.805 -11.895  1.00  0.00     0.043 A 
ATOM     33  C   UNL     1     -13.899  -3.923  -9.415  1.00  0.00     0.115 A 
ATOM     34  C   UNL     1     -15.017  -5.326 -13.161  1.00  0.00     0.018 A 
ATOM     35  C   UNL     1     -13.956  -5.616 -10.991  1.00  0.00     0.078 A 
ATOM     36  N   UNL     1     -13.583  -5.187  -9.771  1.00  0.00    -0.256 NA
ATOM     37  C   UNL     1     -14.646  -6.621 -13.526  1.00  0.00     0.047 A 
ATOM     38  C   UNL     1     -13.605  -6.908 -11.374  1.00  0.00     0.075 A 
ATOM     39  C   UNL     1     -13.935  -7.420 -12.634  1.00  0.00     0.121 A 
BRANCH  39  40
ATOM     40  O   UNL     1     -13.616  -8.664 -13.111  1.00  0.00    -0.497 OA
ATOM     41  C   UNL     1     -12.548  -8.737 -14.048  1.00  0.00     0.278 C 
ENDBRANCH  39  40
ENDBRANCH  29  30
ENDBRANCH   4  29
TORSDOF 8
ENDMDL
MODEL 6
REMARK VINA RESULT:      -8.1     10.942     17.017
REMARK SMILES C=C(C)Cn1c(C)c(C(=O)Nc2ccc(Oc3ccnc4cc(OC)ccc34)c(F)c2)c(=O)n1-c1ccccc1
REMARK SMILES IDX 12 1 13 2 14 3 15 4 29 5 30 6 31 7 11 8 9 9 10 10 8 12 5 13
REMARK SMILES IDX 6 14 34 15 32 16 33 17 7 18 4 19 2 20 1 21 3 22 35 23 36 24
REMARK SMILES IDX 40 25 37 26 39 27 38 28 16 29 17 30 18 31 28 32 19 33 27 34
REMARK SMILES IDX 21 35 20 36 26 37 22 38 23 39 24 40 25 41
REMARK H PARENT 11 11
ROOT
ATOM      1  C   UNL     1     -14.273   1.104 -15.317  1.00  0.00     0.044 A 
ATOM      2  C   UNL     1     -13.430   0.054 -14.935  1.00  0.00     0.030 A 
ATOM      3  C   UNL     1     -13.963  -1.185 -14.560  1.00  0.00     0.052 A 
ATOM      4  C   UNL     1     -15.343  -1.380 -14.557  1.00  0.00     0.163 A 
ATOM      5  C   UNL     1     -16.182  -0.346 -14.967  1.00  0.00     0.167 A 
ATOM      6  F   UNL     1     -17.510  -0.529 -15.032  1.00  0.00    -0.203 F 
ATOM      7  C   UNL     1     -15.658   0.894 -15.327  1.00  0.00     0.069 A 
ENDROOT
BRANCH   1   8
ATOM      8  N   UNL     1     -13.811   2.381 -15.699  1.00  0.00    -0.322 N 
ATOM      9  C   UNL     1     -13.439   2.792 -16.967  1.00  0.00     0.263 C 
ATOM     10  O   UNL     1     -13.459   2.136 -18.000  1.00  0.00    -0.269 OA
ATOM     11  H   UNL     1     -13.702   3.055 -14.952  1.00  0.00     0.170 HD
BRANCH   9  12
ATOM     12  C   UNL     1     -13.003   4.191 -16.991  1.00  0.00     0.128 A 
ATOM     13  N   UNL     1     -12.880   6.429 -17.412  1.00  0.00    -0.277 N 
ATOM     14  C   UNL     1     -13.606   5.238 -17.576  1.00  0.00     0.051 A 
ATOM     15  N   UNL     1     -11.756   6.094 -16.598  1.00  0.00    -0.217 N 
ATOM     16  C   UNL     1     -11.774   4.710 -16.352  1.00  0.00     0.284 A 
ATOM     17  O   UNL     1     -11.031   4.029 -15.664  1.00  0.00    -0.266 OA
ATOM     18  C   UNL     1     -14.890   5.215 -18.341  1.00  0.00     0.067 C 
BRANCH  13  19
ATOM     19  C   UNL     1     -12.597   7.313 -18.571  1.00  0.00     0.173 C 
BRANCH  19  20
ATOM     20  C   UNL     1     -13.221   8.690 -18.450  1.00  0.00    -0.059 C 
ATOM     21  C   UNL     1     -14.546   8.888 -18.568  1.00  0.00     0.009 C 
ATOM     22  C   UNL     1     -12.312   9.833 -18.080  1.00  0.00     0.041 C 
ENDBRANCH  19  20
ENDBRANCH  13  19
BRANCH  15  23
ATOM     23  C   UNL     1     -11.113   7.052 -15.771  1.00  0.00     0.067 A 
ATOM     24  C   UNL     1      -9.975   7.751 -16.204  1.00  0.00     0.028 A 
ATOM     25  C   UNL     1     -11.605   7.328 -14.487  1.00  0.00     0.028 A 
ATOM     26  C   UNL     1      -9.341   8.682 -15.374  1.00  0.00     0.002 A 
ATOM     27  C   UNL     1     -10.969   8.252 -13.653  1.00  0.00     0.002 A 
ATOM     28  C   UNL     1      -9.835   8.928 -14.096  1.00  0.00     0.000 A 
ENDBRANCH  15  23
ENDBRANCH   9  12
ENDBRANCH   1   8
BRANCH   4  29
ATOM     29  O   UNL     1     -15.796  -2.630 -14.218  1.00  0.00    -0.454 OA
BRANCH  29  30
ATOM     30  C   UNL     1     -15.490  -3.130 -12.966  1.00  0.00     0.138 A 
ATOM     31  C   UNL     1     -15.477  -2.335 -11.823  1.00  0.00     0.068 A 
ATOM     32  C   UNL     1     -15.089  -4.483 -12.893  1.00  0.00     0.043 A 
ATOM     33  C   UNL     1     -15.103  -2.927 -10.634  1.00  0.00     0.115 A 
ATOM     34  C   UNL     1     -15.037  -5.342 -14.013  1.00  0.00     0.018 A 
ATOM     35  C   UNL     1     -14.715  -4.981 -11.628  1.00  0.00     0.078 A 
ATOM     36  N   UNL     1     -14.729  -4.220 -10.518  1.00  0.00    -0.256 NA
ATOM     37  C   UNL     1     -14.609  -6.664 -13.879  1.00  0.00     0.047 A 
ATOM     38  C   UNL     1     -14.301  -6.305 -11.519  1.00  0.00     0.075 A 
ATOM     39  C   UNL     1     -14.236  -7.153 -12.630  1.00  0.00     0.121 A 
BRANCH  39  40
ATOM     40  O   UNL     1     -13.821  -8.458 -12.629  1.00  0.00    -0.497 OA
ATOM     41  C   UNL     1     -12.596  -8.741 -11.961  1.00  0.00     0.278 C 
ENDBRANCH  39  40
ENDBRANCH  29  30
ENDBRANCH   4  29
TORSDOF 8
ENDMDL
