MODEL 1
REMARK VINA RESULT:      -7.3      0.000      0.000
REMARK SMILES Brc1ccc2c(c1)-c1[nH]ncc1C2
REMARK SMILES IDX 1 1 2 2 3 3 4 4 5 5 6 6 7 7 8 8 9 9 10 10 11 11 12 12 13 13
REMARK H PARENT 9 14
ROOT
ATOM      1  Br  UNL     1     -26.160  -1.202 -11.176  1.00  0.00    -0.051 Br
ATOM      2  C   UNL     1     -24.549  -0.766 -12.071  1.00  0.00     0.018 A 
ATOM      3  C   UNL     1     -23.637  -1.795 -12.381  1.00  0.00     0.016 A 
ATOM      4  C   UNL     1     -22.434  -1.516 -13.041  1.00  0.00     0.006 A 
ATOM      5  C   UNL     1     -22.170  -0.198 -13.378  1.00  0.00    -0.034 A 
ATOM      6  C   UNL     1     -23.108   0.823 -13.053  1.00  0.00     0.004 A 
ATOM      7  C   UNL     1     -24.294   0.565 -12.405  1.00  0.00     0.026 A 
ATOM      8  C   UNL     1     -22.519   2.020 -13.537  1.00  0.00     0.069 A 
ATOM      9  N   UNL     1     -22.760   3.341 -13.616  1.00  0.00    -0.278 N 
ATOM     10  N   UNL     1     -21.743   3.994 -14.237  1.00  0.00    -0.183 NA
ATOM     11  C   UNL     1     -20.860   3.023 -14.542  1.00  0.00     0.139 A 
ATOM     12  C   UNL     1     -21.309   1.772 -14.121  1.00  0.00     0.002 A 
ATOM     13  C   UNL     1     -20.916   0.337 -14.103  1.00  0.00     0.075 C 
ATOM     14  H   UNL     1     -23.557   3.877 -13.289  1.00  0.00     0.190 HD
ENDROOT
TORSDOF 0
ENDMDL
MODEL 2
REMARK VINA RESULT:      -7.0      4.409      5.997
REMARK SMILES Brc1ccc2c(c1)-c1[nH]ncc1C2
REMARK SMILES IDX 1 1 2 2 3 3 4 4 5 5 6 6 7 7 8 8 9 9 10 10 11 11 12 12 13 13
REMARK H PARENT 9 14
ROOT
ATOM      1  Br  UNL     1     -21.944   0.471 -13.789  1.00  0.00    -0.051 Br
ATOM      2  C   UNL     1     -20.497   1.525 -14.408  1.00  0.00     0.018 A 
ATOM      3  C   UNL     1     -20.690   2.908 -14.601  1.00  0.00     0.016 A 
ATOM      4  C   UNL     1     -19.647   3.723 -15.058  1.00  0.00     0.006 A 
ATOM      5  C   UNL     1     -18.423   3.127 -15.314  1.00  0.00    -0.034 A 
ATOM      6  C   UNL     1     -18.255   1.727 -15.110  1.00  0.00     0.004 A 
ATOM      7  C   UNL     1     -19.269   0.913 -14.662  1.00  0.00     0.026 A 
ATOM      8  C   UNL     1     -16.904   1.472 -15.465  1.00  0.00     0.069 A 
ATOM      9  N   UNL     1     -16.022   0.459 -15.543  1.00  0.00    -0.278 N 
ATOM     10  N   UNL     1     -14.810   0.891 -15.982  1.00  0.00    -0.183 NA
ATOM     11  C   UNL     1     -14.976   2.214 -16.171  1.00  0.00     0.139 A 
ATOM     12  C   UNL     1     -16.273   2.618 -15.859  1.00  0.00     0.002 A 
ATOM     13  C   UNL     1     -17.142   3.826 -15.820  1.00  0.00     0.075 C 
ATOM     14  H   UNL     1     -16.142  -0.525 -15.330  1.00  0.00     0.190 HD
ENDROOT
TORSDOF 0
ENDMDL
MODEL 3
REMARK VINA RESULT:      -6.9      3.690      5.497
REMARK SMILES Brc1ccc2c(c1)-c1[nH]ncc1C2
REMARK SMILES IDX 1 1 2 2 3 3 4 4 5 5 6 6 7 7 8 8 9 9 10 10 11 11 12 12 13 13
REMARK H PARENT 9 14
ROOT
ATOM      1  Br  UNL     1     -21.116   0.560 -14.009  1.00  0.00    -0.051 Br
ATOM      2  C   UNL     1     -22.876  -0.062 -13.687  1.00  0.00     0.018 A 
ATOM      3  C   UNL     1     -23.746  -0.252 -14.779  1.00  0.00     0.016 A 
ATOM      4  C   UNL     1     -25.055  -0.710 -14.584  1.00  0.00     0.006 A 
ATOM      5  C   UNL     1     -25.465  -0.970 -13.286  1.00  0.00    -0.034 A 
ATOM      6  C   UNL     1     -24.566  -0.769 -12.201  1.00  0.00     0.004 A 
ATOM      7  C   UNL     1     -23.277  -0.320 -12.375  1.00  0.00     0.026 A 
ATOM      8  C   UNL     1     -25.309  -1.128 -11.046  1.00  0.00     0.069 A 
ATOM      9  N   UNL     1     -25.181  -1.211  -9.710  1.00  0.00    -0.278 N 
ATOM     10  N   UNL     1     -26.329  -1.651  -9.129  1.00  0.00    -0.183 NA
ATOM     11  C   UNL     1     -27.174  -1.839 -10.160  1.00  0.00     0.139 A 
ATOM     12  C   UNL     1     -26.574  -1.522 -11.378  1.00  0.00     0.002 A 
ATOM     13  C   UNL     1     -26.853  -1.478 -12.840  1.00  0.00     0.075 C 
ATOM     14  H   UNL     1     -24.384  -0.999  -9.119  1.00  0.00     0.190 HD
ENDROOT
TORSDOF 0
ENDMDL
MODEL 4
REMARK VINA RESULT:      -6.9      2.625      3.775
REMARK SMILES Brc1ccc2c(c1)-c1[nH]ncc1C2
REMARK SMILES IDX 1 1 2 2 3 3 4 4 5 5 6 6 7 7 8 8 9 9 10 10 11 11 12 12 13 13
REMARK H PARENT 9 14
ROOT
ATOM      1  Br  UNL     1     -23.016  -1.331 -12.761  1.00  0.00    -0.051 Br
ATOM      2  C   UNL     1     -22.239   0.273 -13.401  1.00  0.00     0.018 A 
ATOM      3  C   UNL     1     -22.988   1.466 -13.349  1.00  0.00     0.016 A 
ATOM      4  C   UNL     1     -22.451   2.673 -13.812  1.00  0.00     0.006 A 
ATOM      5  C   UNL     1     -21.162   2.657 -14.321  1.00  0.00    -0.034 A 
ATOM      6  C   UNL     1     -20.427   1.438 -14.361  1.00  0.00     0.004 A 
ATOM      7  C   UNL     1     -20.940   0.244 -13.910  1.00  0.00     0.026 A 
ATOM      8  C   UNL     1     -19.176   1.791 -14.931  1.00  0.00     0.069 A 
ATOM      9  N   UNL     1     -18.000   1.241 -15.284  1.00  0.00    -0.278 N 
ATOM     10  N   UNL     1     -17.157   2.169 -15.811  1.00  0.00    -0.183 NA
ATOM     11  C   UNL     1     -17.858   3.318 -15.769  1.00  0.00     0.139 A 
ATOM     12  C   UNL     1     -19.127   3.125 -15.225  1.00  0.00     0.002 A 
ATOM     13  C   UNL     1     -20.374   3.861 -14.882  1.00  0.00     0.075 C 
ATOM     14  H   UNL     1     -17.684   0.280 -15.211  1.00  0.00     0.190 HD
ENDROOT
TORSDOF 0
ENDMDL
MODEL 5
REMARK VINA RESULT:      -6.8      3.799      5.639
REMARK SMILES Brc1ccc2c(c1)-c1[nH]ncc1C2
REMARK SMILES IDX 1 1 2 2 3 3 4 4 5 5 6 6 7 7 8 8 9 9 10 10 11 11 12 12 13 13
REMARK H PARENT 9 14
ROOT
ATOM      1  Br  UNL     1     -16.171   1.329 -15.700  1.00  0.00    -0.051 Br
ATOM      2  C   UNL     1     -17.923   1.889 -15.247  1.00  0.00     0.018 A 
ATOM      3  C   UNL     1     -18.268   3.247 -15.397  1.00  0.00     0.016 A 
ATOM      4  C   UNL     1     -19.552   3.702 -15.072  1.00  0.00     0.006 A 
ATOM      5  C   UNL     1     -20.469   2.777 -14.601  1.00  0.00    -0.034 A 
ATOM      6  C   UNL     1     -20.094   1.411 -14.459  1.00  0.00     0.004 A 
ATOM      7  C   UNL     1     -18.837   0.947 -14.773  1.00  0.00     0.026 A 
ATOM      8  C   UNL     1     -21.258   0.767 -13.962  1.00  0.00     0.069 A 
ATOM      9  N   UNL     1     -21.697  -0.448 -13.589  1.00  0.00    -0.278 N 
ATOM     10  N   UNL     1     -22.993  -0.403 -13.182  1.00  0.00    -0.183 NA
ATOM     11  C   UNL     1     -23.341   0.890 -13.319  1.00  0.00     0.139 A 
ATOM     12  C   UNL     1     -22.283   1.657 -13.805  1.00  0.00     0.002 A 
ATOM     13  C   UNL     1     -21.931   3.052 -14.185  1.00  0.00     0.075 C 
ATOM     14  H   UNL     1     -21.210  -1.338 -13.574  1.00  0.00     0.190 HD
ENDROOT
TORSDOF 0
ENDMDL
MODEL 6
REMARK VINA RESULT:      -6.7      4.399      5.847
REMARK SMILES Brc1ccc2c(c1)-c1[nH]ncc1C2
REMARK SMILES IDX 1 1 2 2 3 3 4 4 5 5 6 6 7 7 8 8 9 9 10 10 11 11 12 12 13 13
REMARK H PARENT 9 14
ROOT
ATOM      1  Br  UNL     1     -22.194   3.294 -14.091  1.00  0.00    -0.051 Br
ATOM      2  C   UNL     1     -20.475   2.651 -14.560  1.00  0.00     0.018 A 
ATOM      3  C   UNL     1     -20.253   1.260 -14.606  1.00  0.00     0.016 A 
ATOM      4  C   UNL     1     -18.997   0.743 -14.948  1.00  0.00     0.006 A 
ATOM      5  C   UNL     1     -17.983   1.642 -15.239  1.00  0.00    -0.034 A 
ATOM      6  C   UNL     1     -18.235   3.042 -15.185  1.00  0.00     0.004 A 
ATOM      7  C   UNL     1     -19.462   3.566 -14.851  1.00  0.00     0.026 A 
ATOM      8  C   UNL     1     -16.997   3.644 -15.534  1.00  0.00     0.069 A 
ATOM      9  N   UNL     1     -16.440   4.856 -15.703  1.00  0.00    -0.278 N 
ATOM     10  N   UNL     1     -15.133   4.755 -16.063  1.00  0.00    -0.183 NA
ATOM     11  C   UNL     1     -14.903   3.429 -16.112  1.00  0.00     0.139 A 
ATOM     12  C   UNL     1     -16.045   2.698 -15.788  1.00  0.00     0.002 A 
ATOM     13  C   UNL     1     -16.531   1.299 -15.637  1.00  0.00     0.075 C 
ATOM     14  H   UNL     1     -16.848   5.779 -15.600  1.00  0.00     0.190 HD
ENDROOT
TORSDOF 0
ENDMDL
MODEL 7
REMARK VINA RESULT:      -6.6      2.191      3.069
REMARK SMILES Brc1ccc2c(c1)-c1[nH]ncc1C2
REMARK SMILES IDX 1 1 2 2 3 3 4 4 5 5 6 6 7 7 8 8 9 9 10 10 11 11 12 12 13 13
REMARK H PARENT 9 14
ROOT
ATOM      1  Br  UNL     1     -27.325  -1.656  -9.441  1.00  0.00    -0.051 Br
ATOM      2  C   UNL     1     -26.511  -1.330 -11.120  1.00  0.00     0.018 A 
ATOM      3  C   UNL     1     -27.248  -1.570 -12.297  1.00  0.00     0.016 A 
ATOM      4  C   UNL     1     -26.683  -1.342 -13.558  1.00  0.00     0.006 A 
ATOM      5  C   UNL     1     -25.379  -0.874 -13.610  1.00  0.00    -0.034 A 
ATOM      6  C   UNL     1     -24.657  -0.640 -12.406  1.00  0.00     0.004 A 
ATOM      7  C   UNL     1     -25.198  -0.858 -11.159  1.00  0.00     0.026 A 
ATOM      8  C   UNL     1     -23.386  -0.176 -12.833  1.00  0.00     0.069 A 
ATOM      9  N   UNL     1     -22.207   0.237 -12.334  1.00  0.00    -0.278 N 
ATOM     10  N   UNL     1     -21.338   0.568 -13.325  1.00  0.00    -0.183 NA
ATOM     11  C   UNL     1     -22.027   0.345 -14.461  1.00  0.00     0.139 A 
ATOM     12  C   UNL     1     -23.314  -0.122 -14.196  1.00  0.00     0.002 A 
ATOM     13  C   UNL     1     -24.562  -0.555 -14.881  1.00  0.00     0.075 C 
ATOM     14  H   UNL     1     -21.904   0.326 -11.369  1.00  0.00     0.190 HD
ENDROOT
TORSDOF 0
ENDMDL
MODEL 8
REMARK VINA RESULT:      -6.6      1.976      2.739
REMARK SMILES Brc1ccc2c(c1)-c1[nH]ncc1C2
REMARK SMILES IDX 1 1 2 2 3 3 4 4 5 5 6 6 7 7 8 8 9 9 10 10 11 11 12 12 13 13
REMARK H PARENT 9 14
ROOT
ATOM      1  Br  UNL     1     -23.217  -2.564 -12.343  1.00  0.00    -0.051 Br
ATOM      2  C   UNL     1     -22.876  -0.759 -12.806  1.00  0.00     0.018 A 
ATOM      3  C   UNL     1     -23.802   0.232 -12.425  1.00  0.00     0.016 A 
ATOM      4  C   UNL     1     -23.588   1.578 -12.748  1.00  0.00     0.006 A 
ATOM      5  C   UNL     1     -22.438   1.902 -13.451  1.00  0.00    -0.034 A 
ATOM      6  C   UNL     1     -21.519   0.880 -13.823  1.00  0.00     0.004 A 
ATOM      7  C   UNL     1     -21.714  -0.446 -13.514  1.00  0.00     0.026 A 
ATOM      8  C   UNL     1     -20.484   1.562 -14.515  1.00  0.00     0.069 A 
ATOM      9  N   UNL     1     -19.319   1.323 -15.143  1.00  0.00    -0.278 N 
ATOM     10  N   UNL     1     -18.772   2.470 -15.626  1.00  0.00    -0.183 NA
ATOM     11  C   UNL     1     -19.646   3.431 -15.271  1.00  0.00     0.139 A 
ATOM     12  C   UNL     1     -20.732   2.904 -14.573  1.00  0.00     0.002 A 
ATOM     13  C   UNL     1     -22.001   3.310 -13.910  1.00  0.00     0.075 C 
ATOM     14  H   UNL     1     -18.829   0.447 -15.293  1.00  0.00     0.190 HD
ENDROOT
TORSDOF 0
ENDMDL
MODEL 9
REMARK VINA RESULT:      -6.6      5.341      7.116
REMARK SMILES Brc1ccc2c(c1)-c1[nH]ncc1C2
REMARK SMILES IDX 1 1 2 2 3 3 4 4 5 5 6 6 7 7 8 8 9 9 10 10 11 11 12 12 13 13
REMARK H PARENT 9 14
ROOT
ATOM      1  Br  UNL     1     -13.624   3.705 -16.468  1.00  0.00    -0.051 Br
ATOM      2  C   UNL     1     -15.199   2.771 -15.984  1.00  0.00     0.018 A 
ATOM      3  C   UNL     1     -15.154   1.367 -15.868  1.00  0.00     0.016 A 
ATOM      4  C   UNL     1     -16.296   0.638 -15.513  1.00  0.00     0.006 A 
ATOM      5  C   UNL     1     -17.467   1.340 -15.279  1.00  0.00    -0.034 A 
ATOM      6  C   UNL     1     -17.485   2.759 -15.403  1.00  0.00     0.004 A 
ATOM      7  C   UNL     1     -16.372   3.490 -15.751  1.00  0.00     0.026 A 
ATOM      8  C   UNL     1     -18.820   3.130 -15.099  1.00  0.00     0.069 A 
ATOM      9  N   UNL     1     -19.600   4.221 -14.999  1.00  0.00    -0.278 N 
ATOM     10  N   UNL     1     -20.871   3.891 -14.648  1.00  0.00    -0.183 NA
ATOM     11  C   UNL     1     -20.847   2.549 -14.532  1.00  0.00     0.139 A 
ATOM     12  C   UNL     1     -19.581   2.034 -14.806  1.00  0.00     0.002 A 
ATOM     13  C   UNL     1     -18.836   0.748 -14.879  1.00  0.00     0.075 C 
ATOM     14  H   UNL     1     -19.373   5.199 -15.146  1.00  0.00     0.190 HD
ENDROOT
TORSDOF 0
ENDMDL
