MODEL 1
REMARK VINA RESULT:      -8.6      0.000      0.000
REMARK SMILES C#Cc1cccc(Nc2ncnc3cc(OCCOC)c(OCCOC)cc23)c1
REMARK SMILES IDX 9 1 10 2 11 3 12 4 13 5 14 6 15 7 21 8 27 9 28 10 8 11 7 13
REMARK SMILES IDX 2 14 3 15 4 16 29 17 5 18 6 19 1 20 22 21 23 22 24 23 25 24
REMARK SMILES IDX 26 25 16 26 17 27 18 28 19 29 20 30
REMARK H PARENT 8 12
ROOT
ATOM      1  C   UNL     1     -21.286   1.376 -14.178  1.00  0.00     0.141 A 
ATOM      2  N   UNL     1     -22.185   2.345 -13.923  1.00  0.00    -0.219 NA
ATOM      3  C   UNL     1     -21.786   3.605 -14.110  1.00  0.00     0.224 A 
ATOM      4  N   UNL     1     -20.578   3.995 -14.527  1.00  0.00    -0.236 NA
ATOM      5  C   UNL     1     -19.695   3.031 -14.796  1.00  0.00     0.080 A 
ATOM      6  C   UNL     1     -18.434   3.399 -15.238  1.00  0.00     0.079 A 
ATOM      7  C   UNL     1     -17.463   2.445 -15.561  1.00  0.00     0.163 A 
ATOM      8  C   UNL     1     -17.731   1.082 -15.412  1.00  0.00     0.162 A 
ATOM      9  C   UNL     1     -18.998   0.699 -14.971  1.00  0.00     0.064 A 
ATOM     10  C   UNL     1     -19.988   1.668 -14.648  1.00  0.00     0.047 A 
ENDROOT
BRANCH   1  11
ATOM     11  N   UNL     1     -21.640   0.018 -13.941  1.00  0.00    -0.340 N 
ATOM     12  H   UNL     1     -20.787  -0.519 -13.825  1.00  0.00     0.168 HD
BRANCH  11  13
ATOM     13  C   UNL     1     -22.674  -0.491 -13.120  1.00  0.00     0.041 A 
ATOM     14  C   UNL     1     -26.283  -1.475 -13.255  1.00  0.00    -0.070 C 
ATOM     15  C   UNL     1     -24.954  -1.278 -12.762  1.00  0.00     0.026 A 
ATOM     16  C   UNL     1     -24.629  -1.669 -11.462  1.00  0.00     0.017 A 
ATOM     17  C   UNL     1     -23.978  -0.703 -13.587  1.00  0.00     0.043 A 
ATOM     18  C   UNL     1     -23.328  -1.501 -10.994  1.00  0.00     0.003 A 
ATOM     19  C   UNL     1     -22.358  -0.929 -11.822  1.00  0.00     0.026 A 
ATOM     20  C   UNL     1     -27.396  -1.649 -13.670  1.00  0.00     0.010 C 
ENDBRANCH  11  13
ENDBRANCH   1  11
BRANCH   8  21
ATOM     21  O   UNL     1     -16.717   0.223 -15.742  1.00  0.00    -0.487 OA
BRANCH  21  22
ATOM     22  C   UNL     1     -16.288  -0.712 -14.748  1.00  0.00     0.258 C 
BRANCH  22  23
ATOM     23  C   UNL     1     -14.834  -0.408 -14.386  1.00  0.00     0.201 C 
BRANCH  23  24
ATOM     24  O   UNL     1     -14.782   0.762 -13.563  1.00  0.00    -0.381 OA
ATOM     25  C   UNL     1     -15.553   0.601 -12.378  1.00  0.00     0.195 C 
ENDBRANCH  23  24
ENDBRANCH  22  23
ENDBRANCH  21  22
ENDBRANCH   8  21
BRANCH   7  26
ATOM     26  O   UNL     1     -16.202   2.831 -15.937  1.00  0.00    -0.487 OA
BRANCH  26  27
ATOM     27  C   UNL     1     -15.926   4.211 -15.658  1.00  0.00     0.258 C 
BRANCH  27  28
ATOM     28  C   UNL     1     -15.161   4.815 -16.835  1.00  0.00     0.201 C 
BRANCH  28  29
ATOM     29  O   UNL     1     -13.747   4.808 -16.627  1.00  0.00    -0.381 OA
ATOM     30  C   UNL     1     -13.385   4.794 -15.250  1.00  0.00     0.195 C 
ENDBRANCH  28  29
ENDBRANCH  27  28
ENDBRANCH  26  27
ENDBRANCH   7  26
TORSDOF 10
ENDMDL
MODEL 2
REMARK VINA RESULT:      -7.9      8.766     13.626
REMARK SMILES C#Cc1cccc(Nc2ncnc3cc(OCCOC)c(OCCOC)cc23)c1
REMARK SMILES IDX 9 1 10 2 11 3 12 4 13 5 14 6 15 7 21 8 27 9 28 10 8 11 7 13
REMARK SMILES IDX 2 14 3 15 4 16 29 17 5 18 6 19 1 20 22 21 23 22 24 23 25 24
REMARK SMILES IDX 26 25 16 26 17 27 18 28 19 29 20 30
REMARK H PARENT 8 12
ROOT
ATOM      1  C   UNL     1     -27.126  -2.101  -8.161  1.00  0.00     0.141 A 
ATOM      2  N   UNL     1     -26.915  -0.837  -7.753  1.00  0.00    -0.219 NA
ATOM      3  C   UNL     1     -27.557  -0.441  -6.652  1.00  0.00     0.224 A 
ATOM      4  N   UNL     1     -28.391  -1.183  -5.917  1.00  0.00    -0.236 NA
ATOM      5  C   UNL     1     -28.584  -2.442  -6.315  1.00  0.00     0.080 A 
ATOM      6  C   UNL     1     -29.437  -3.244  -5.572  1.00  0.00     0.079 A 
ATOM      7  C   UNL     1     -29.672  -4.579  -5.914  1.00  0.00     0.163 A 
ATOM      8  C   UNL     1     -29.073  -5.137  -7.046  1.00  0.00     0.162 A 
ATOM      9  C   UNL     1     -28.210  -4.342  -7.800  1.00  0.00     0.064 A 
ATOM     10  C   UNL     1     -27.965  -2.985  -7.450  1.00  0.00     0.047 A 
ENDROOT
BRANCH   1  11
ATOM     11  N   UNL     1     -26.511  -2.559  -9.361  1.00  0.00    -0.340 N 
ATOM     12  H   UNL     1     -26.956  -3.428  -9.637  1.00  0.00     0.168 HD
BRANCH  11  13
ATOM     13  C   UNL     1     -26.126  -1.803 -10.495  1.00  0.00     0.041 A 
ATOM     14  C   UNL     1     -23.091  -0.355 -12.136  1.00  0.00    -0.070 C 
ATOM     15  C   UNL     1     -24.450  -0.742 -11.911  1.00  0.00     0.026 A 
ATOM     16  C   UNL     1     -25.424  -0.447 -12.866  1.00  0.00     0.017 A 
ATOM     17  C   UNL     1     -24.799  -1.426 -10.739  1.00  0.00     0.043 A 
ATOM     18  C   UNL     1     -26.741  -0.848 -12.657  1.00  0.00     0.003 A 
ATOM     19  C   UNL     1     -27.084  -1.532 -11.487  1.00  0.00     0.026 A 
ATOM     20  C   UNL     1     -21.949  -0.037 -12.330  1.00  0.00     0.010 C 
ENDBRANCH  11  13
ENDBRANCH   1  11
BRANCH   8  21
ATOM     21  O   UNL     1     -29.370  -6.448  -7.307  1.00  0.00    -0.487 OA
BRANCH  21  22
ATOM     22  C   UNL     1     -28.302  -7.298  -7.736  1.00  0.00     0.258 C 
BRANCH  22  23
ATOM     23  C   UNL     1     -28.895  -8.477  -8.508  1.00  0.00     0.201 C 
BRANCH  23  24
ATOM     24  O   UNL     1     -27.903  -9.018  -9.387  1.00  0.00    -0.381 OA
ATOM     25  C   UNL     1     -26.632  -8.414  -9.176  1.00  0.00     0.195 C 
ENDBRANCH  23  24
ENDBRANCH  22  23
ENDBRANCH  21  22
ENDBRANCH   8  21
BRANCH   7  26
ATOM     26  O   UNL     1     -30.567  -5.336  -5.201  1.00  0.00    -0.487 OA
BRANCH  26  27
ATOM     27  C   UNL     1     -30.361  -5.269  -3.783  1.00  0.00     0.258 C 
BRANCH  27  28
ATOM     28  C   UNL     1     -29.011  -5.901  -3.445  1.00  0.00     0.201 C 
BRANCH  28  29
ATOM     29  O   UNL     1     -28.113  -4.973  -2.834  1.00  0.00    -0.381 OA
ATOM     30  C   UNL     1     -26.918  -4.776  -3.583  1.00  0.00     0.195 C 
ENDBRANCH  28  29
ENDBRANCH  27  28
ENDBRANCH  26  27
ENDBRANCH   7  26
TORSDOF 10
ENDMDL
MODEL 3
REMARK VINA RESULT:      -7.5      4.137      7.232
REMARK SMILES C#Cc1cccc(Nc2ncnc3cc(OCCOC)c(OCCOC)cc23)c1
REMARK SMILES IDX 9 1 10 2 11 3 12 4 13 5 14 6 15 7 21 8 27 9 28 10 8 11 7 13
REMARK SMILES IDX 2 14 3 15 4 16 29 17 5 18 6 19 1 20 22 21 23 22 24 23 25 24
REMARK SMILES IDX 26 25 16 26 17 27 18 28 19 29 20 30
REMARK H PARENT 8 12
ROOT
ATOM      1  C   UNL     1     -15.182   0.716 -14.639  1.00  0.00     0.141 A 
ATOM      2  N   UNL     1     -14.402   1.809 -14.549  1.00  0.00    -0.219 NA
ATOM      3  C   UNL     1     -13.409   1.773 -13.658  1.00  0.00     0.224 A 
ATOM      4  N   UNL     1     -13.116   0.753 -12.846  1.00  0.00    -0.236 NA
ATOM      5  C   UNL     1     -13.880  -0.337 -12.951  1.00  0.00     0.080 A 
ATOM      6  C   UNL     1     -13.600  -1.418 -12.130  1.00  0.00     0.079 A 
ATOM      7  C   UNL     1     -14.343  -2.601 -12.198  1.00  0.00     0.163 A 
ATOM      8  C   UNL     1     -15.419  -2.714 -13.081  1.00  0.00     0.162 A 
ATOM      9  C   UNL     1     -15.709  -1.634 -13.915  1.00  0.00     0.064 A 
ATOM     10  C   UNL     1     -14.951  -0.431 -13.851  1.00  0.00     0.047 A 
ENDROOT
BRANCH   1  11
ATOM     11  N   UNL     1     -16.290   0.722 -15.532  1.00  0.00    -0.340 N 
ATOM     12  H   UNL     1     -16.396  -0.211 -15.917  1.00  0.00     0.168 HD
BRANCH  11  13
ATOM     13  C   UNL     1     -17.549   1.347 -15.366  1.00  0.00     0.041 A 
ATOM     14  C   UNL     1     -20.988   0.667 -14.055  1.00  0.00    -0.070 C 
ATOM     15  C   UNL     1     -19.865   1.363 -14.604  1.00  0.00     0.026 A 
ATOM     16  C   UNL     1     -19.972   2.719 -14.914  1.00  0.00     0.017 A 
ATOM     17  C   UNL     1     -18.657   0.686 -14.819  1.00  0.00     0.043 A 
ATOM     18  C   UNL     1     -18.869   3.401 -15.423  1.00  0.00     0.003 A 
ATOM     19  C   UNL     1     -17.666   2.722 -15.634  1.00  0.00     0.026 A 
ATOM     20  C   UNL     1     -21.928   0.085 -13.587  1.00  0.00     0.010 C 
ENDBRANCH  11  13
ENDBRANCH   1  11
BRANCH   8  21
ATOM     21  O   UNL     1     -16.094  -3.905 -13.070  1.00  0.00    -0.487 OA
BRANCH  21  22
ATOM     22  C   UNL     1     -15.891  -4.794 -14.172  1.00  0.00     0.258 C 
BRANCH  22  23
ATOM     23  C   UNL     1     -15.167  -6.043 -13.668  1.00  0.00     0.201 C 
BRANCH  23  24
ATOM     24  O   UNL     1     -13.758  -5.888 -13.867  1.00  0.00    -0.381 OA
ATOM     25  C   UNL     1     -13.473  -5.222 -15.091  1.00  0.00     0.195 C 
ENDBRANCH  23  24
ENDBRANCH  22  23
ENDBRANCH  21  22
ENDBRANCH   8  21
BRANCH   7  26
ATOM     26  O   UNL     1     -14.089  -3.636 -11.334  1.00  0.00    -0.487 OA
BRANCH  26  27
ATOM     27  C   UNL     1     -14.030  -3.225  -9.961  1.00  0.00     0.258 C 
BRANCH  27  28
ATOM     28  C   UNL     1     -12.657  -3.582  -9.391  1.00  0.00     0.201 C 
BRANCH  28  29
ATOM     29  O   UNL     1     -11.905  -2.426  -9.018  1.00  0.00    -0.381 OA
ATOM     30  C   UNL     1     -11.411  -2.487  -7.684  1.00  0.00     0.195 C 
ENDBRANCH  28  29
ENDBRANCH  27  28
ENDBRANCH  26  27
ENDBRANCH   7  26
TORSDOF 10
ENDMDL
MODEL 4
REMARK VINA RESULT:      -7.5      3.791      6.673
REMARK SMILES C#Cc1cccc(Nc2ncnc3cc(OCCOC)c(OCCOC)cc23)c1
REMARK SMILES IDX 9 1 10 2 11 3 12 4 13 5 14 6 15 7 21 8 27 9 28 10 8 11 7 13
REMARK SMILES IDX 2 14 3 15 4 16 29 17 5 18 6 19 1 20 22 21 23 22 24 23 25 24
REMARK SMILES IDX 26 25 16 26 17 27 18 28 19 29 20 30
REMARK H PARENT 8 12
ROOT
ATOM      1  C   UNL     1     -15.734   1.315 -15.339  1.00  0.00     0.141 A 
ATOM      2  N   UNL     1     -15.083   2.418 -15.749  1.00  0.00    -0.219 NA
ATOM      3  C   UNL     1     -13.890   2.657 -15.199  1.00  0.00     0.224 A 
ATOM      4  N   UNL     1     -13.283   1.903 -14.278  1.00  0.00    -0.236 NA
ATOM      5  C   UNL     1     -13.924   0.799 -13.887  1.00  0.00     0.080 A 
ATOM      6  C   UNL     1     -13.319  -0.012 -12.939  1.00  0.00     0.079 A 
ATOM      7  C   UNL     1     -13.920  -1.194 -12.497  1.00  0.00     0.163 A 
ATOM      8  C   UNL     1     -15.173  -1.577 -12.979  1.00  0.00     0.162 A 
ATOM      9  C   UNL     1     -15.791  -0.772 -13.936  1.00  0.00     0.064 A 
ATOM     10  C   UNL     1     -15.179   0.430 -14.391  1.00  0.00     0.047 A 
ENDROOT
BRANCH   1  11
ATOM     11  N   UNL     1     -17.034   1.042 -15.851  1.00  0.00    -0.340 N 
ATOM     12  H   UNL     1     -17.105   0.046 -16.030  1.00  0.00     0.168 HD
BRANCH  11  13
ATOM     13  C   UNL     1     -18.276   1.569 -15.423  1.00  0.00     0.041 A 
ATOM     14  C   UNL     1     -21.483   0.518 -13.805  1.00  0.00    -0.070 C 
ATOM     15  C   UNL     1     -20.466   1.347 -14.374  1.00  0.00     0.026 A 
ATOM     16  C   UNL     1     -20.652   2.729 -14.440  1.00  0.00     0.017 A 
ATOM     17  C   UNL     1     -19.280   0.775 -14.852  1.00  0.00     0.043 A 
ATOM     18  C   UNL     1     -19.649   3.538 -14.969  1.00  0.00     0.003 A 
ATOM     19  C   UNL     1     -18.467   2.962 -15.443  1.00  0.00     0.026 A 
ATOM     20  C   UNL     1     -22.334  -0.177 -13.320  1.00  0.00     0.010 C 
ENDBRANCH  11  13
ENDBRANCH   1  11
BRANCH   8  21
ATOM     21  O   UNL     1     -15.687  -2.745 -12.481  1.00  0.00    -0.487 OA
BRANCH  21  22
ATOM     22  C   UNL     1     -15.647  -3.901 -13.324  1.00  0.00     0.258 C 
BRANCH  22  23
ATOM     23  C   UNL     1     -16.268  -5.077 -12.570  1.00  0.00     0.201 C 
BRANCH  23  24
ATOM     24  O   UNL     1     -15.631  -5.215 -11.295  1.00  0.00    -0.381 OA
ATOM     25  C   UNL     1     -14.310  -5.725 -11.423  1.00  0.00     0.195 C 
ENDBRANCH  23  24
ENDBRANCH  22  23
ENDBRANCH  21  22
ENDBRANCH   8  21
BRANCH   7  26
ATOM     26  O   UNL     1     -13.333  -1.950 -11.513  1.00  0.00    -0.487 OA
BRANCH  26  27
ATOM     27  C   UNL     1     -12.209  -2.710 -11.978  1.00  0.00     0.258 C 
BRANCH  27  28
ATOM     28  C   UNL     1     -11.189  -2.834 -10.846  1.00  0.00     0.201 C 
BRANCH  28  29
ATOM     29  O   UNL     1     -11.722  -2.426  -9.585  1.00  0.00    -0.381 OA
ATOM     30  C   UNL     1     -11.952  -3.514  -8.696  1.00  0.00     0.195 C 
ENDBRANCH  28  29
ENDBRANCH  27  28
ENDBRANCH  26  27
ENDBRANCH   7  26
TORSDOF 10
ENDMDL
MODEL 5
REMARK VINA RESULT:      -7.1      3.915      7.084
REMARK SMILES C#Cc1cccc(Nc2ncnc3cc(OCCOC)c(OCCOC)cc23)c1
REMARK SMILES IDX 9 1 10 2 11 3 12 4 13 5 14 6 15 7 21 8 27 9 28 10 8 11 7 13
REMARK SMILES IDX 2 14 3 15 4 16 29 17 5 18 6 19 1 20 22 21 23 22 24 23 25 24
REMARK SMILES IDX 26 25 16 26 17 27 18 28 19 29 20 30
REMARK H PARENT 8 12
ROOT
ATOM      1  C   UNL     1     -15.339   1.457 -14.593  1.00  0.00     0.141 A 
ATOM      2  N   UNL     1     -14.802   2.117 -15.635  1.00  0.00    -0.219 NA
ATOM      3  C   UNL     1     -13.754   1.551 -16.236  1.00  0.00     0.224 A 
ATOM      4  N   UNL     1     -13.187   0.388 -15.900  1.00  0.00    -0.236 NA
ATOM      5  C   UNL     1     -13.734  -0.273 -14.877  1.00  0.00     0.080 A 
ATOM      6  C   UNL     1     -13.177  -1.488 -14.506  1.00  0.00     0.079 A 
ATOM      7  C   UNL     1     -13.708  -2.248 -13.459  1.00  0.00     0.163 A 
ATOM      8  C   UNL     1     -14.805  -1.783 -12.731  1.00  0.00     0.162 A 
ATOM      9  C   UNL     1     -15.377  -0.564 -13.097  1.00  0.00     0.064 A 
ATOM     10  C   UNL     1     -14.842   0.208 -14.165  1.00  0.00     0.047 A 
ENDROOT
BRANCH   1  11
ATOM     11  N   UNL     1     -16.423   2.042 -13.880  1.00  0.00    -0.340 N 
ATOM     12  H   UNL     1     -16.084   2.874 -13.408  1.00  0.00     0.168 HD
BRANCH  11  13
ATOM     13  C   UNL     1     -17.764   2.212 -14.302  1.00  0.00     0.041 A 
ATOM     14  C   UNL     1     -21.147   0.650 -13.952  1.00  0.00    -0.070 C 
ATOM     15  C   UNL     1     -20.116   1.572 -14.320  1.00  0.00     0.026 A 
ATOM     16  C   UNL     1     -20.437   2.719 -15.046  1.00  0.00     0.017 A 
ATOM     17  C   UNL     1     -18.790   1.328 -13.942  1.00  0.00     0.043 A 
ATOM     18  C   UNL     1     -19.436   3.629 -15.380  1.00  0.00     0.003 A 
ATOM     19  C   UNL     1     -18.115   3.381 -14.999  1.00  0.00     0.026 A 
ATOM     20  C   UNL     1     -22.014  -0.118 -13.636  1.00  0.00     0.010 C 
ENDBRANCH  11  13
ENDBRANCH   1  11
BRANCH   8  21
ATOM     21  O   UNL     1     -15.250  -2.590 -11.718  1.00  0.00    -0.487 OA
BRANCH  21  22
ATOM     22  C   UNL     1     -15.096  -2.118 -10.376  1.00  0.00     0.258 C 
BRANCH  22  23
ATOM     23  C   UNL     1     -14.218  -3.106  -9.607  1.00  0.00     0.201 C 
BRANCH  23  24
ATOM     24  O   UNL     1     -14.566  -4.443  -9.981  1.00  0.00    -0.381 OA
ATOM     25  C   UNL     1     -13.410  -5.256 -10.150  1.00  0.00     0.195 C 
ENDBRANCH  23  24
ENDBRANCH  22  23
ENDBRANCH  21  22
ENDBRANCH   8  21
BRANCH   7  26
ATOM     26  O   UNL     1     -13.104  -3.416 -13.068  1.00  0.00    -0.487 OA
BRANCH  26  27
ATOM     27  C   UNL     1     -12.411  -4.079 -14.134  1.00  0.00     0.258 C 
BRANCH  27  28
ATOM     28  C   UNL     1     -12.761  -5.567 -14.108  1.00  0.00     0.201 C 
BRANCH  28  29
ATOM     29  O   UNL     1     -13.851  -5.885 -14.975  1.00  0.00    -0.381 OA
ATOM     30  C   UNL     1     -15.105  -5.926 -14.303  1.00  0.00     0.195 C 
ENDBRANCH  28  29
ENDBRANCH  27  28
ENDBRANCH  26  27
ENDBRANCH   7  26
TORSDOF 10
ENDMDL
MODEL 6
REMARK VINA RESULT:      -6.8      5.662      9.119
REMARK SMILES C#Cc1cccc(Nc2ncnc3cc(OCCOC)c(OCCOC)cc23)c1
REMARK SMILES IDX 9 1 10 2 11 3 12 4 13 5 14 6 15 7 21 8 27 9 28 10 8 11 7 13
REMARK SMILES IDX 2 14 3 15 4 16 29 17 5 18 6 19 1 20 22 21 23 22 24 23 25 24
REMARK SMILES IDX 26 25 16 26 17 27 18 28 19 29 20 30
REMARK H PARENT 8 12
ROOT
ATOM      1  C   UNL     1     -15.101  -1.395 -13.195  1.00  0.00     0.141 A 
ATOM      2  N   UNL     1     -15.306  -0.689 -12.069  1.00  0.00    -0.219 NA
ATOM      3  C   UNL     1     -15.346  -1.372 -10.923  1.00  0.00     0.224 A 
ATOM      4  N   UNL     1     -15.201  -2.694 -10.790  1.00  0.00    -0.236 NA
ATOM      5  C   UNL     1     -14.980  -3.390 -11.907  1.00  0.00     0.080 A 
ATOM      6  C   UNL     1     -14.817  -4.763 -11.805  1.00  0.00     0.079 A 
ATOM      7  C   UNL     1     -14.561  -5.556 -12.929  1.00  0.00     0.163 A 
ATOM      8  C   UNL     1     -14.494  -4.983 -14.201  1.00  0.00     0.162 A 
ATOM      9  C   UNL     1     -14.653  -3.601 -14.316  1.00  0.00     0.064 A 
ATOM     10  C   UNL     1     -14.909  -2.793 -13.174  1.00  0.00     0.047 A 
ENDROOT
BRANCH   1  11
ATOM     11  N   UNL     1     -15.106  -0.724 -14.450  1.00  0.00    -0.340 N 
ATOM     12  H   UNL     1     -14.975  -1.414 -15.182  1.00  0.00     0.168 HD
BRANCH  11  13
ATOM     13  C   UNL     1     -15.958   0.320 -14.885  1.00  0.00     0.041 A 
ATOM     14  C   UNL     1     -19.555   1.353 -14.843  1.00  0.00    -0.070 C 
ATOM     15  C   UNL     1     -18.140   1.392 -15.056  1.00  0.00     0.026 A 
ATOM     16  C   UNL     1     -17.556   2.521 -15.633  1.00  0.00     0.017 A 
ATOM     17  C   UNL     1     -17.343   0.305 -14.675  1.00  0.00     0.043 A 
ATOM     18  C   UNL     1     -16.175   2.568 -15.814  1.00  0.00     0.003 A 
ATOM     19  C   UNL     1     -15.385   1.482 -15.431  1.00  0.00     0.026 A 
ATOM     20  C   UNL     1     -20.741   1.324 -14.658  1.00  0.00     0.010 C 
ENDBRANCH  11  13
ENDBRANCH   1  11
BRANCH   8  21
ATOM     21  O   UNL     1     -14.249  -5.838 -15.242  1.00  0.00    -0.487 OA
BRANCH  21  22
ATOM     22  C   UNL     1     -12.992  -5.722 -15.915  1.00  0.00     0.258 C 
BRANCH  22  23
ATOM     23  C   UNL     1     -12.738  -7.008 -16.702  1.00  0.00     0.201 C 
BRANCH  23  24
ATOM     24  O   UNL     1     -13.343  -6.902 -17.995  1.00  0.00    -0.381 OA
ATOM     25  C   UNL     1     -12.951  -5.707 -18.659  1.00  0.00     0.195 C 
ENDBRANCH  23  24
ENDBRANCH  22  23
ENDBRANCH  21  22
ENDBRANCH   8  21
BRANCH   7  26
ATOM     26  O   UNL     1     -14.464  -6.919 -12.814  1.00  0.00    -0.487 OA
BRANCH  26  27
ATOM     27  C   UNL     1     -13.323  -7.344 -12.055  1.00  0.00     0.258 C 
BRANCH  27  28
ATOM     28  C   UNL     1     -12.624  -8.481 -12.800  1.00  0.00     0.201 C 
BRANCH  28  29
ATOM     29  O   UNL     1     -12.120  -9.483 -11.914  1.00  0.00    -0.381 OA
ATOM     30  C   UNL     1     -10.699  -9.495 -11.834  1.00  0.00     0.195 C 
ENDBRANCH  28  29
ENDBRANCH  27  28
ENDBRANCH  26  27
ENDBRANCH   7  26
TORSDOF 10
ENDMDL
MODEL 7
REMARK VINA RESULT:      -6.8      3.204      6.130
REMARK SMILES C#Cc1cccc(Nc2ncnc3cc(OCCOC)c(OCCOC)cc23)c1
REMARK SMILES IDX 9 1 10 2 11 3 12 4 13 5 14 6 15 7 21 8 27 9 28 10 8 11 7 13
REMARK SMILES IDX 2 14 3 15 4 16 29 17 5 18 6 19 1 20 22 21 23 22 24 23 25 24
REMARK SMILES IDX 26 25 16 26 17 27 18 28 19 29 20 30
REMARK H PARENT 8 12
ROOT
ATOM      1  C   UNL     1     -15.646   1.335 -14.494  1.00  0.00     0.141 A 
ATOM      2  N   UNL     1     -15.655   0.491 -13.446  1.00  0.00    -0.219 NA
ATOM      3  C   UNL     1     -14.597   0.522 -12.634  1.00  0.00     0.224 A 
ATOM      4  N   UNL     1     -13.527   1.313 -12.764  1.00  0.00    -0.236 NA
ATOM      5  C   UNL     1     -13.530   2.161 -13.795  1.00  0.00     0.080 A 
ATOM      6  C   UNL     1     -12.439   3.003 -13.956  1.00  0.00     0.079 A 
ATOM      7  C   UNL     1     -12.380   3.933 -14.999  1.00  0.00     0.163 A 
ATOM      8  C   UNL     1     -13.414   4.017 -15.934  1.00  0.00     0.162 A 
ATOM      9  C   UNL     1     -14.518   3.179 -15.780  1.00  0.00     0.064 A 
ATOM     10  C   UNL     1     -14.583   2.235 -14.718  1.00  0.00     0.047 A 
ENDROOT
BRANCH   1  11
ATOM     11  N   UNL     1     -16.724   1.305 -15.423  1.00  0.00    -0.340 N 
ATOM     12  H   UNL     1     -16.696   0.419 -15.917  1.00  0.00     0.168 HD
BRANCH  11  13
ATOM     13  C   UNL     1     -18.059   1.738 -15.235  1.00  0.00     0.041 A 
ATOM     14  C   UNL     1     -21.357   0.531 -13.943  1.00  0.00    -0.070 C 
ATOM     15  C   UNL     1     -20.349   1.398 -14.470  1.00  0.00     0.026 A 
ATOM     16  C   UNL     1     -20.650   2.735 -14.735  1.00  0.00     0.017 A 
ATOM     17  C   UNL     1     -19.058   0.908 -14.709  1.00  0.00     0.043 A 
ATOM     18  C   UNL     1     -19.659   3.584 -15.222  1.00  0.00     0.003 A 
ATOM     19  C   UNL     1     -18.373   3.091 -15.457  1.00  0.00     0.026 A 
ATOM     20  C   UNL     1     -22.203  -0.194 -13.493  1.00  0.00     0.010 C 
ENDBRANCH  11  13
ENDBRANCH   1  11
BRANCH   8  21
ATOM     21  O   UNL     1     -13.264   4.950 -16.925  1.00  0.00    -0.487 OA
BRANCH  21  22
ATOM     22  C   UNL     1     -13.685   4.592 -18.245  1.00  0.00     0.258 C 
BRANCH  22  23
ATOM     23  C   UNL     1     -12.724   3.538 -18.795  1.00  0.00     0.201 C 
BRANCH  23  24
ATOM     24  O   UNL     1     -13.457   2.586 -19.574  1.00  0.00    -0.381 OA
ATOM     25  C   UNL     1     -12.875   1.290 -19.499  1.00  0.00     0.195 C 
ENDBRANCH  23  24
ENDBRANCH  22  23
ENDBRANCH  21  22
ENDBRANCH   8  21
BRANCH   7  26
ATOM     26  O   UNL     1     -11.265   4.712 -15.177  1.00  0.00    -0.487 OA
BRANCH  26  27
ATOM     27  C   UNL     1     -11.259   5.887 -14.353  1.00  0.00     0.258 C 
BRANCH  27  28
ATOM     28  C   UNL     1     -10.039   5.845 -13.434  1.00  0.00     0.201 C 
BRANCH  28  29
ATOM     29  O   UNL     1      -9.661   7.143 -12.970  1.00  0.00    -0.381 OA
ATOM     30  C   UNL     1     -10.677   8.122 -13.159  1.00  0.00     0.195 C 
ENDBRANCH  28  29
ENDBRANCH  27  28
ENDBRANCH  26  27
ENDBRANCH   7  26
TORSDOF 10
ENDMDL
MODEL 8
REMARK VINA RESULT:      -6.6      5.349      9.402
REMARK SMILES C#Cc1cccc(Nc2ncnc3cc(OCCOC)c(OCCOC)cc23)c1
REMARK SMILES IDX 9 1 10 2 11 3 12 4 13 5 14 6 15 7 21 8 27 9 28 10 8 11 7 13
REMARK SMILES IDX 2 14 3 15 4 16 29 17 5 18 6 19 1 20 22 21 23 22 24 23 25 24
REMARK SMILES IDX 26 25 16 26 17 27 18 28 19 29 20 30
REMARK H PARENT 8 12
ROOT
ATOM      1  C   UNL     1     -14.840  -3.586 -10.855  1.00  0.00     0.141 A 
ATOM      2  N   UNL     1     -15.145  -4.896 -10.869  1.00  0.00    -0.219 NA
ATOM      3  C   UNL     1     -15.767  -5.362 -11.954  1.00  0.00     0.224 A 
ATOM      4  N   UNL     1     -16.116  -4.648 -13.029  1.00  0.00    -0.236 NA
ATOM      5  C   UNL     1     -15.795  -3.352 -13.019  1.00  0.00     0.080 A 
ATOM      6  C   UNL     1     -16.135  -2.583 -14.122  1.00  0.00     0.079 A 
ATOM      7  C   UNL     1     -15.813  -1.224 -14.194  1.00  0.00     0.163 A 
ATOM      8  C   UNL     1     -15.164  -0.591 -13.131  1.00  0.00     0.162 A 
ATOM      9  C   UNL     1     -14.814  -1.355 -12.018  1.00  0.00     0.064 A 
ATOM     10  C   UNL     1     -15.136  -2.740 -11.945  1.00  0.00     0.047 A 
ENDROOT
BRANCH   1  11
ATOM     11  N   UNL     1     -14.227  -3.025  -9.700  1.00  0.00    -0.340 N 
ATOM     12  H   UNL     1     -14.791  -3.264  -8.891  1.00  0.00     0.168 HD
BRANCH  11  13
ATOM     13  C   UNL     1     -12.852  -2.986  -9.365  1.00  0.00     0.041 A 
ATOM     14  C   UNL     1     -10.567  -3.190  -6.408  1.00  0.00    -0.070 C 
ATOM     15  C   UNL     1     -11.018  -3.109  -7.763  1.00  0.00     0.026 A 
ATOM     16  C   UNL     1     -10.089  -3.075  -8.804  1.00  0.00     0.017 A 
ATOM     17  C   UNL     1     -12.390  -3.077  -8.045  1.00  0.00     0.043 A 
ATOM     18  C   UNL     1     -10.531  -3.023 -10.124  1.00  0.00     0.003 A 
ATOM     19  C   UNL     1     -11.900  -2.993 -10.400  1.00  0.00     0.026 A 
ATOM     20  C   UNL     1     -10.188  -3.266  -5.271  1.00  0.00     0.010 C 
ENDBRANCH  11  13
ENDBRANCH   1  11
BRANCH   8  21
ATOM     21  O   UNL     1     -14.899   0.743 -13.287  1.00  0.00    -0.487 OA
BRANCH  21  22
ATOM     22  C   UNL     1     -13.761   1.107 -14.074  1.00  0.00     0.258 C 
BRANCH  22  23
ATOM     23  C   UNL     1     -12.519   1.078 -13.182  1.00  0.00     0.201 C 
BRANCH  23  24
ATOM     24  O   UNL     1     -12.641   2.076 -12.164  1.00  0.00    -0.381 OA
ATOM     25  C   UNL     1     -11.949   3.268 -12.517  1.00  0.00     0.195 C 
ENDBRANCH  23  24
ENDBRANCH  22  23
ENDBRANCH  21  22
ENDBRANCH   8  21
BRANCH   7  26
ATOM     26  O   UNL     1     -16.213  -0.467 -15.266  1.00  0.00    -0.487 OA
BRANCH  26  27
ATOM     27  C   UNL     1     -17.621  -0.196 -15.273  1.00  0.00     0.258 C 
BRANCH  27  28
ATOM     28  C   UNL     1     -17.838   1.316 -15.200  1.00  0.00     0.201 C 
BRANCH  28  29
ATOM     29  O   UNL     1     -18.254   1.744 -13.901  1.00  0.00    -0.381 OA
ATOM     30  C   UNL     1     -18.487   3.146 -13.824  1.00  0.00     0.195 C 
ENDBRANCH  28  29
ENDBRANCH  27  28
ENDBRANCH  26  27
ENDBRANCH   7  26
TORSDOF 10
ENDMDL
MODEL 9
REMARK VINA RESULT:      -6.5      6.318     11.274
REMARK SMILES C#Cc1cccc(Nc2ncnc3cc(OCCOC)c(OCCOC)cc23)c1
REMARK SMILES IDX 9 1 10 2 11 3 12 4 13 5 14 6 15 7 21 8 27 9 28 10 8 11 7 13
REMARK SMILES IDX 2 14 3 15 4 16 29 17 5 18 6 19 1 20 22 21 23 22 24 23 25 24
REMARK SMILES IDX 26 25 16 26 17 27 18 28 19 29 20 30
REMARK H PARENT 8 12
ROOT
ATOM      1  C   UNL     1     -24.761  -0.501 -12.483  1.00  0.00     0.141 A 
ATOM      2  N   UNL     1     -25.049  -0.591 -13.794  1.00  0.00    -0.219 NA
ATOM      3  C   UNL     1     -26.217  -1.148 -14.121  1.00  0.00     0.224 A 
ATOM      4  N   UNL     1     -27.128  -1.625 -13.268  1.00  0.00    -0.236 NA
ATOM      5  C   UNL     1     -26.847  -1.517 -11.967  1.00  0.00     0.080 A 
ATOM      6  C   UNL     1     -27.774  -1.995 -11.053  1.00  0.00     0.079 A 
ATOM      7  C   UNL     1     -27.559  -1.897  -9.674  1.00  0.00     0.163 A 
ATOM      8  C   UNL     1     -26.379  -1.340  -9.177  1.00  0.00     0.162 A 
ATOM      9  C   UNL     1     -25.440  -0.853 -10.087  1.00  0.00     0.064 A 
ATOM     10  C   UNL     1     -25.658  -0.947 -11.490  1.00  0.00     0.047 A 
ENDROOT
BRANCH   1  11
ATOM     11  N   UNL     1     -23.504   0.033 -12.080  1.00  0.00    -0.340 N 
ATOM     12  H   UNL     1     -22.997  -0.688 -11.579  1.00  0.00     0.168 HD
BRANCH  11  13
ATOM     13  C   UNL     1     -22.620   0.853 -12.821  1.00  0.00     0.041 A 
ATOM     14  C   UNL     1     -19.457   0.669 -14.814  1.00  0.00    -0.070 C 
ATOM     15  C   UNL     1     -20.647   1.190 -14.213  1.00  0.00     0.026 A 
ATOM     16  C   UNL     1     -21.005   2.523 -14.422  1.00  0.00     0.017 A 
ATOM     17  C   UNL     1     -21.457   0.360 -13.427  1.00  0.00     0.043 A 
ATOM     18  C   UNL     1     -22.178   3.020 -13.858  1.00  0.00     0.003 A 
ATOM     19  C   UNL     1     -22.983   2.187 -13.077  1.00  0.00     0.026 A 
ATOM     20  C   UNL     1     -18.463   0.231 -15.325  1.00  0.00     0.010 C 
ENDBRANCH  11  13
ENDBRANCH   1  11
BRANCH   8  21
ATOM     21  O   UNL     1     -26.253  -1.296  -7.815  1.00  0.00    -0.487 OA
BRANCH  21  22
ATOM     22  C   UNL     1     -26.964  -0.271  -7.115  1.00  0.00     0.258 C 
BRANCH  22  23
ATOM     23  C   UNL     1     -27.018  -0.638  -5.631  1.00  0.00     0.201 C 
BRANCH  23  24
ATOM     24  O   UNL     1     -26.588  -1.993  -5.460  1.00  0.00    -0.381 OA
ATOM     25  C   UNL     1     -27.338  -2.655  -4.448  1.00  0.00     0.195 C 
ENDBRANCH  23  24
ENDBRANCH  22  23
ENDBRANCH  21  22
ENDBRANCH   8  21
BRANCH   7  26
ATOM     26  O   UNL     1     -28.460  -2.431  -8.788  1.00  0.00    -0.487 OA
BRANCH  26  27
ATOM     27  C   UNL     1     -28.018  -3.666  -8.207  1.00  0.00     0.258 C 
BRANCH  27  28
ATOM     28  C   UNL     1     -29.093  -4.180  -7.250  1.00  0.00     0.201 C 
BRANCH  28  29
ATOM     29  O   UNL     1     -28.891  -5.548  -6.889  1.00  0.00    -0.381 OA
ATOM     30  C   UNL     1     -28.088  -6.260  -7.823  1.00  0.00     0.195 C 
ENDBRANCH  28  29
ENDBRANCH  27  28
ENDBRANCH  26  27
ENDBRANCH   7  26
TORSDOF 10
ENDMDL
