MODEL 1
REMARK VINA RESULT:      -7.1      0.000      0.000
REMARK SMILES C#Cc1cn(C2CCCC2)c2ncnc(N)c12
REMARK SMILES IDX 1 1 2 2 3 3 4 4 5 5 11 6 12 7 13 8 14 9 15 10 17 11 6 12
REMARK SMILES IDX 7 13 10 14 8 15 9 16 16 17
REMARK H PARENT 16 18 16 19
ROOT
ATOM      1  C   UNL     1     -27.881  -6.790  -8.196  1.00  0.00     0.010 C 
ATOM      2  C   UNL     1     -28.049  -5.775  -7.580  1.00  0.00    -0.068 C 
ATOM      3  C   UNL     1     -28.249  -4.568  -6.845  1.00  0.00     0.055 A 
ATOM      4  C   UNL     1     -28.886  -4.510  -5.624  1.00  0.00     0.106 A 
ATOM      5  N   UNL     1     -28.896  -3.199  -5.215  1.00  0.00    -0.328 N 
ATOM      6  C   UNL     1     -28.266  -2.422  -6.159  1.00  0.00     0.147 A 
ATOM      7  N   UNL     1     -28.088  -1.092  -6.082  1.00  0.00    -0.218 NA
ATOM      8  C   UNL     1     -27.440  -0.614  -7.155  1.00  0.00     0.226 A 
ATOM      9  N   UNL     1     -26.990  -1.295  -8.226  1.00  0.00    -0.219 NA
ATOM     10  C   UNL     1     -27.179  -2.628  -8.262  1.00  0.00     0.137 A 
ATOM     11  C   UNL     1     -27.849  -3.249  -7.196  1.00  0.00     0.077 A 
ENDROOT
BRANCH   5  12
ATOM     12  C   UNL     1     -29.465  -2.698  -3.973  1.00  0.00     0.089 C 
ATOM     13  C   UNL     1     -30.574  -3.593  -3.387  1.00  0.00     0.025 C 
ATOM     14  C   UNL     1     -28.415  -2.539  -2.860  1.00  0.00     0.025 C 
ATOM     15  C   UNL     1     -30.018  -4.117  -2.070  1.00  0.00     0.002 C 
ATOM     16  C   UNL     1     -29.119  -2.991  -1.589  1.00  0.00     0.002 C 
ENDBRANCH   5  12
BRANCH  10  17
ATOM     17  N   UNL     1     -26.703  -3.296  -9.380  1.00  0.00    -0.383 N 
ATOM     18  H   UNL     1     -26.089  -2.702  -9.924  1.00  0.00     0.158 HD
ATOM     19  H   UNL     1     -27.397  -3.825  -9.892  1.00  0.00     0.158 HD
ENDBRANCH  10  17
TORSDOF 2
ENDMDL
MODEL 2
REMARK VINA RESULT:      -6.9      1.994      3.908
REMARK SMILES C#Cc1cn(C2CCCC2)c2ncnc(N)c12
REMARK SMILES IDX 1 1 2 2 3 3 4 4 5 5 11 6 12 7 13 8 14 9 15 10 17 11 6 12
REMARK SMILES IDX 7 13 10 14 8 15 9 16 16 17
REMARK H PARENT 16 18 16 19
ROOT
ATOM      1  C   UNL     1     -26.378  -1.621  -9.843  1.00  0.00     0.010 C 
ATOM      2  C   UNL     1     -26.991  -2.070  -8.915  1.00  0.00    -0.068 C 
ATOM      3  C   UNL     1     -27.720  -2.606  -7.812  1.00  0.00     0.055 A 
ATOM      4  C   UNL     1     -28.301  -3.855  -7.811  1.00  0.00     0.106 A 
ATOM      5  N   UNL     1     -28.913  -4.036  -6.594  1.00  0.00    -0.328 N 
ATOM      6  C   UNL     1     -28.723  -2.916  -5.818  1.00  0.00     0.147 A 
ATOM      7  N   UNL     1     -29.182  -2.749  -4.565  1.00  0.00    -0.218 NA
ATOM      8  C   UNL     1     -28.838  -1.551  -4.066  1.00  0.00     0.226 A 
ATOM      9  N   UNL     1     -28.134  -0.572  -4.665  1.00  0.00    -0.219 NA
ATOM     10  C   UNL     1     -27.685  -0.782  -5.918  1.00  0.00     0.137 A 
ATOM     11  C   UNL     1     -27.980  -1.998  -6.552  1.00  0.00     0.077 A 
ENDROOT
BRANCH   5  12
ATOM     12  C   UNL     1     -29.638  -5.225  -6.173  1.00  0.00     0.089 C 
ATOM     13  C   UNL     1     -30.311  -5.990  -7.328  1.00  0.00     0.025 C 
ATOM     14  C   UNL     1     -28.738  -6.246  -5.455  1.00  0.00     0.025 C 
ATOM     15  C   UNL     1     -29.599  -7.335  -7.393  1.00  0.00     0.002 C 
ATOM     16  C   UNL     1     -29.214  -7.603  -5.949  1.00  0.00     0.002 C 
ENDBRANCH   5  12
BRANCH  10  17
ATOM     17  N   UNL     1     -26.963   0.249  -6.502  1.00  0.00    -0.383 N 
ATOM     18  H   UNL     1     -27.559   0.824  -7.085  1.00  0.00     0.158 HD
ATOM     19  H   UNL     1     -26.069  -0.020  -6.890  1.00  0.00     0.158 HD
ENDBRANCH  10  17
TORSDOF 2
ENDMDL
MODEL 3
REMARK VINA RESULT:      -6.8      1.297      4.481
REMARK SMILES C#Cc1cn(C2CCCC2)c2ncnc(N)c12
REMARK SMILES IDX 1 1 2 2 3 3 4 4 5 5 11 6 12 7 13 8 14 9 15 10 17 11 6 12
REMARK SMILES IDX 7 13 10 14 8 15 9 16 16 17
REMARK H PARENT 16 18 16 19
ROOT
ATOM      1  C   UNL     1     -28.771  -2.761  -1.894  1.00  0.00     0.010 C 
ATOM      2  C   UNL     1     -28.667  -2.943  -3.075  1.00  0.00    -0.068 C 
ATOM      3  C   UNL     1     -28.544  -3.161  -4.479  1.00  0.00     0.055 A 
ATOM      4  C   UNL     1     -28.945  -4.317  -5.114  1.00  0.00     0.106 A 
ATOM      5  N   UNL     1     -28.679  -4.176  -6.455  1.00  0.00    -0.328 N 
ATOM      6  C   UNL     1     -28.119  -2.940  -6.681  1.00  0.00     0.147 A 
ATOM      7  N   UNL     1     -27.739  -2.465  -7.880  1.00  0.00    -0.218 NA
ATOM      8  C   UNL     1     -27.225  -1.229  -7.783  1.00  0.00     0.226 A 
ATOM      9  N   UNL     1     -27.062  -0.480  -6.676  1.00  0.00    -0.219 NA
ATOM     10  C   UNL     1     -27.465  -0.989  -5.495  1.00  0.00     0.137 A 
ATOM     11  C   UNL     1     -28.019  -2.278  -5.463  1.00  0.00     0.077 A 
ENDROOT
BRANCH   5  12
ATOM     12  C   UNL     1     -28.956  -5.164  -7.486  1.00  0.00     0.089 C 
ATOM     13  C   UNL     1     -27.746  -6.047  -7.849  1.00  0.00     0.025 C 
ATOM     14  C   UNL     1     -30.086  -6.131  -7.094  1.00  0.00     0.025 C 
ATOM     15  C   UNL     1     -28.131  -7.456  -7.420  1.00  0.00     0.002 C 
ATOM     16  C   UNL     1     -29.637  -7.489  -7.613  1.00  0.00     0.002 C 
ENDBRANCH   5  12
BRANCH  10  17
ATOM     17  N   UNL     1     -27.282  -0.189  -4.377  1.00  0.00    -0.383 N 
ATOM     18  H   UNL     1     -28.167   0.023  -3.933  1.00  0.00     0.158 HD
ATOM     19  H   UNL     1     -26.638   0.581  -4.501  1.00  0.00     0.158 HD
ENDBRANCH  10  17
TORSDOF 2
ENDMDL
MODEL 4
REMARK VINA RESULT:      -6.5      2.033      4.989
REMARK SMILES C#Cc1cn(C2CCCC2)c2ncnc(N)c12
REMARK SMILES IDX 1 1 2 2 3 3 4 4 5 5 11 6 12 7 13 8 14 9 15 10 17 11 6 12
REMARK SMILES IDX 7 13 10 14 8 15 9 16 16 17
REMARK H PARENT 16 18 16 19
ROOT
ATOM      1  C   UNL     1     -27.318  -1.449  -7.756  1.00  0.00     0.010 C 
ATOM      2  C   UNL     1     -27.838  -2.342  -7.147  1.00  0.00    -0.068 C 
ATOM      3  C   UNL     1     -28.456  -3.406  -6.425  1.00  0.00     0.055 A 
ATOM      4  C   UNL     1     -28.582  -4.690  -6.908  1.00  0.00     0.106 A 
ATOM      5  N   UNL     1     -29.221  -5.442  -5.952  1.00  0.00    -0.328 N 
ATOM      6  C   UNL     1     -29.498  -4.650  -4.861  1.00  0.00     0.147 A 
ATOM      7  N   UNL     1     -30.113  -5.058  -3.738  1.00  0.00    -0.218 NA
ATOM      8  C   UNL     1     -30.243  -4.059  -2.851  1.00  0.00     0.226 A 
ATOM      9  N   UNL     1     -29.850  -2.778  -2.979  1.00  0.00    -0.219 NA
ATOM     10  C   UNL     1     -29.229  -2.410  -4.117  1.00  0.00     0.137 A 
ATOM     11  C   UNL     1     -29.033  -3.366  -5.125  1.00  0.00     0.077 A 
ENDROOT
BRANCH   5  12
ATOM     12  C   UNL     1     -29.545  -6.856  -6.055  1.00  0.00     0.089 C 
ATOM     13  C   UNL     1     -29.861  -7.323  -7.489  1.00  0.00     0.025 C 
ATOM     14  C   UNL     1     -28.409  -7.764  -5.553  1.00  0.00     0.025 C 
ATOM     15  C   UNL     1     -28.748  -8.298  -7.851  1.00  0.00     0.002 C 
ATOM     16  C   UNL     1     -28.388  -8.937  -6.521  1.00  0.00     0.002 C 
ENDBRANCH   5  12
BRANCH  10  17
ATOM     17  N   UNL     1     -28.838  -1.082  -4.213  1.00  0.00    -0.383 N 
ATOM     18  H   UNL     1     -27.872  -1.009  -4.507  1.00  0.00     0.158 HD
ATOM     19  H   UNL     1     -29.126  -0.494  -3.443  1.00  0.00     0.158 HD
ENDBRANCH  10  17
TORSDOF 2
ENDMDL
MODEL 5
REMARK VINA RESULT:      -6.5     11.101     14.073
REMARK SMILES C#Cc1cn(C2CCCC2)c2ncnc(N)c12
REMARK SMILES IDX 1 1 2 2 3 3 4 4 5 5 11 6 12 7 13 8 14 9 15 10 17 11 6 12
REMARK SMILES IDX 7 13 10 14 8 15 9 16 16 17
REMARK H PARENT 16 18 16 19
ROOT
ATOM      1  C   UNL     1     -23.116  -0.050 -13.446  1.00  0.00     0.010 C 
ATOM      2  C   UNL     1     -22.033   0.301 -13.824  1.00  0.00    -0.068 C 
ATOM      3  C   UNL     1     -20.744   0.715 -14.274  1.00  0.00     0.055 A 
ATOM      4  C   UNL     1     -19.695  -0.150 -14.498  1.00  0.00     0.106 A 
ATOM      5  N   UNL     1     -18.618   0.591 -14.922  1.00  0.00    -0.328 N 
ATOM      6  C   UNL     1     -18.974   1.919 -14.977  1.00  0.00     0.147 A 
ATOM      7  N   UNL     1     -18.168   2.926 -15.357  1.00  0.00    -0.218 NA
ATOM      8  C   UNL     1     -18.797   4.111 -15.307  1.00  0.00     0.226 A 
ATOM      9  N   UNL     1     -20.065   4.364 -14.933  1.00  0.00    -0.219 NA
ATOM     10  C   UNL     1     -20.843   3.326 -14.568  1.00  0.00     0.137 A 
ATOM     11  C   UNL     1     -20.300   2.032 -14.576  1.00  0.00     0.077 A 
ENDROOT
BRANCH   5  12
ATOM     12  C   UNL     1     -17.309   0.066 -15.277  1.00  0.00     0.089 C 
ATOM     13  C   UNL     1     -16.179   0.510 -14.328  1.00  0.00     0.025 C 
ATOM     14  C   UNL     1     -17.270  -1.471 -15.295  1.00  0.00     0.025 C 
ATOM     15  C   UNL     1     -15.699  -0.765 -13.647  1.00  0.00     0.002 C 
ATOM     16  C   UNL     1     -15.918  -1.836 -14.701  1.00  0.00     0.002 C 
ENDBRANCH   5  12
BRANCH  10  17
ATOM     17  N   UNL     1     -22.144   3.625 -14.188  1.00  0.00    -0.383 N 
ATOM     18  H   UNL     1     -22.729   2.800 -14.218  1.00  0.00     0.158 HD
ATOM     19  H   UNL     1     -22.525   4.469 -14.594  1.00  0.00     0.158 HD
ENDBRANCH  10  17
TORSDOF 2
ENDMDL
MODEL 6
REMARK VINA RESULT:      -6.4      2.198      4.346
REMARK SMILES C#Cc1cn(C2CCCC2)c2ncnc(N)c12
REMARK SMILES IDX 1 1 2 2 3 3 4 4 5 5 11 6 12 7 13 8 14 9 15 10 17 11 6 12
REMARK SMILES IDX 7 13 10 14 8 15 9 16 16 17
REMARK H PARENT 16 18 16 19
ROOT
ATOM      1  C   UNL     1     -31.488  -5.746  -2.551  1.00  0.00     0.010 C 
ATOM      2  C   UNL     1     -30.832  -5.227  -3.410  1.00  0.00    -0.068 C 
ATOM      3  C   UNL     1     -30.051  -4.607  -4.431  1.00  0.00     0.055 A 
ATOM      4  C   UNL     1     -29.749  -3.263  -4.456  1.00  0.00     0.106 A 
ATOM      5  N   UNL     1     -28.986  -3.022  -5.573  1.00  0.00    -0.328 N 
ATOM      6  C   UNL     1     -28.794  -4.201  -6.256  1.00  0.00     0.147 A 
ATOM      7  N   UNL     1     -28.090  -4.336  -7.393  1.00  0.00    -0.218 NA
ATOM      8  C   UNL     1     -28.082  -5.608  -7.824  1.00  0.00     0.226 A 
ATOM      9  N   UNL     1     -28.676  -6.679  -7.265  1.00  0.00    -0.219 NA
ATOM     10  C   UNL     1     -29.365  -6.503  -6.120  1.00  0.00     0.137 A 
ATOM     11  C   UNL     1     -29.450  -5.215  -5.568  1.00  0.00     0.077 A 
ENDROOT
BRANCH   5  12
ATOM     12  C   UNL     1     -28.446  -1.732  -5.974  1.00  0.00     0.089 C 
ATOM     13  C   UNL     1     -29.179  -0.527  -5.355  1.00  0.00     0.025 C 
ATOM     14  C   UNL     1     -26.963  -1.567  -5.599  1.00  0.00     0.025 C 
ATOM     15  C   UNL     1     -28.157   0.146  -4.448  1.00  0.00     0.002 C 
ATOM     16  C   UNL     1     -26.833  -0.121  -5.143  1.00  0.00     0.002 C 
ENDBRANCH   5  12
BRANCH  10  17
ATOM     17  N   UNL     1     -29.964  -7.628  -5.573  1.00  0.00    -0.383 N 
ATOM     18  H   UNL     1     -30.957  -7.644  -5.773  1.00  0.00     0.158 HD
ATOM     19  H   UNL     1     -29.686  -7.844  -4.625  1.00  0.00     0.158 HD
ENDBRANCH  10  17
TORSDOF 2
ENDMDL
MODEL 7
REMARK VINA RESULT:      -6.4     14.946     16.496
REMARK SMILES C#Cc1cn(C2CCCC2)c2ncnc(N)c12
REMARK SMILES IDX 1 1 2 2 3 3 4 4 5 5 11 6 12 7 13 8 14 9 15 10 17 11 6 12
REMARK SMILES IDX 7 13 10 14 8 15 9 16 16 17
REMARK H PARENT 16 18 16 19
ROOT
ATOM      1  C   UNL     1     -19.769   3.200 -15.330  1.00  0.00     0.010 C 
ATOM      2  C   UNL     1     -18.666   2.737 -15.236  1.00  0.00    -0.068 C 
ATOM      3  C   UNL     1     -17.356   2.183 -15.123  1.00  0.00     0.055 A 
ATOM      4  C   UNL     1     -17.104   0.866 -14.808  1.00  0.00     0.106 A 
ATOM      5  N   UNL     1     -15.742   0.688 -14.789  1.00  0.00    -0.328 N 
ATOM      6  C   UNL     1     -15.123   1.879 -15.094  1.00  0.00     0.147 A 
ATOM      7  N   UNL     1     -13.795   2.070 -15.171  1.00  0.00    -0.218 NA
ATOM      8  C   UNL     1     -13.493   3.339 -15.488  1.00  0.00     0.226 A 
ATOM      9  N   UNL     1     -14.337   4.363 -15.712  1.00  0.00    -0.219 NA
ATOM     10  C   UNL     1     -15.662   4.129 -15.635  1.00  0.00     0.137 A 
ATOM     11  C   UNL     1     -16.107   2.838 -15.308  1.00  0.00     0.077 A 
ENDROOT
BRANCH   5  12
ATOM     12  C   UNL     1     -15.048  -0.559 -14.508  1.00  0.00     0.089 C 
ATOM     13  C   UNL     1     -14.459  -0.641 -13.087  1.00  0.00     0.025 C 
ATOM     14  C   UNL     1     -15.957  -1.791 -14.663  1.00  0.00     0.025 C 
ATOM     15  C   UNL     1     -15.227  -1.758 -12.394  1.00  0.00     0.002 C 
ATOM     16  C   UNL     1     -15.558  -2.717 -13.524  1.00  0.00     0.002 C 
ENDBRANCH   5  12
BRANCH  10  17
ATOM     17  N   UNL     1     -16.501   5.208 -15.872  1.00  0.00    -0.383 N 
ATOM     18  H   UNL     1     -17.473   4.932 -15.808  1.00  0.00     0.158 HD
ATOM     19  H   UNL     1     -16.242   5.787 -16.659  1.00  0.00     0.158 HD
ENDBRANCH  10  17
TORSDOF 2
ENDMDL
MODEL 8
REMARK VINA RESULT:      -6.1      1.708      4.565
REMARK SMILES C#Cc1cn(C2CCCC2)c2ncnc(N)c12
REMARK SMILES IDX 1 1 2 2 3 3 4 4 5 5 11 6 12 7 13 8 14 9 15 10 17 11 6 12
REMARK SMILES IDX 7 13 10 14 8 15 9 16 16 17
REMARK H PARENT 16 18 16 19
ROOT
ATOM      1  C   UNL     1     -29.196  -3.118  -1.903  1.00  0.00     0.010 C 
ATOM      2  C   UNL     1     -28.992  -3.504  -3.020  1.00  0.00    -0.068 C 
ATOM      3  C   UNL     1     -28.750  -3.966  -4.348  1.00  0.00     0.055 A 
ATOM      4  C   UNL     1     -28.853  -5.285  -4.733  1.00  0.00     0.106 A 
ATOM      5  N   UNL     1     -28.553  -5.359  -6.072  1.00  0.00    -0.328 N 
ATOM      6  C   UNL     1     -28.266  -4.100  -6.545  1.00  0.00     0.147 A 
ATOM      7  N   UNL     1     -27.936  -3.800  -7.813  1.00  0.00    -0.218 NA
ATOM      8  C   UNL     1     -27.711  -2.487  -7.971  1.00  0.00     0.226 A 
ATOM      9  N   UNL     1     -27.776  -1.514  -7.042  1.00  0.00    -0.219 NA
ATOM     10  C   UNL     1     -28.120  -1.854  -5.784  1.00  0.00     0.137 A 
ATOM     11  C   UNL     1     -28.378  -3.202  -5.490  1.00  0.00     0.077 A 
ENDROOT
BRANCH   5  12
ATOM     12  C   UNL     1     -28.552  -6.570  -6.879  1.00  0.00     0.089 C 
ATOM     13  C   UNL     1     -28.089  -7.828  -6.119  1.00  0.00     0.025 C 
ATOM     14  C   UNL     1     -29.940  -6.905  -7.449  1.00  0.00     0.025 C 
ATOM     15  C   UNL     1     -29.308  -8.739  -6.063  1.00  0.00     0.002 C 
ATOM     16  C   UNL     1     -30.050  -8.419  -7.349  1.00  0.00     0.002 C 
ENDBRANCH   5  12
BRANCH  10  17
ATOM     17  N   UNL     1     -28.176  -0.827  -4.854  1.00  0.00    -0.383 N 
ATOM     18  H   UNL     1     -28.798  -1.062  -4.090  1.00  0.00     0.158 HD
ATOM     19  H   UNL     1     -28.265   0.101  -5.246  1.00  0.00     0.158 HD
ENDBRANCH  10  17
TORSDOF 2
ENDMDL
MODEL 9
REMARK VINA RESULT:      -6.1     13.700     16.186
REMARK SMILES C#Cc1cn(C2CCCC2)c2ncnc(N)c12
REMARK SMILES IDX 1 1 2 2 3 3 4 4 5 5 11 6 12 7 13 8 14 9 15 10 17 11 6 12
REMARK SMILES IDX 7 13 10 14 8 15 9 16 16 17
REMARK H PARENT 16 18 16 19
ROOT
ATOM      1  C   UNL     1     -13.608   1.884 -17.935  1.00  0.00     0.010 C 
ATOM      2  C   UNL     1     -14.287   1.756 -16.955  1.00  0.00    -0.068 C 
ATOM      3  C   UNL     1     -15.097   1.604 -15.790  1.00  0.00     0.055 A 
ATOM      4  C   UNL     1     -16.406   2.025 -15.706  1.00  0.00     0.106 A 
ATOM      5  N   UNL     1     -16.869   1.718 -14.449  1.00  0.00    -0.328 N 
ATOM      6  C   UNL     1     -15.869   1.100 -13.734  1.00  0.00     0.147 A 
ATOM      7  N   UNL     1     -15.974   0.658 -12.468  1.00  0.00    -0.218 NA
ATOM      8  C   UNL     1     -14.831   0.100 -12.040  1.00  0.00     0.226 A 
ATOM      9  N   UNL     1     -13.673  -0.041 -12.711  1.00  0.00    -0.219 NA
ATOM     10  C   UNL     1     -13.610   0.407 -13.981  1.00  0.00     0.137 A 
ATOM     11  C   UNL     1     -14.743   1.014 -14.545  1.00  0.00     0.077 A 
ENDROOT
BRANCH   5  12
ATOM     12  C   UNL     1     -18.208   1.983 -13.945  1.00  0.00     0.089 C 
ATOM     13  C   UNL     1     -18.706   3.415 -14.217  1.00  0.00     0.025 C 
ATOM     14  C   UNL     1     -19.266   1.043 -14.547  1.00  0.00     0.025 C 
ATOM     15  C   UNL     1     -19.885   3.260 -15.169  1.00  0.00     0.002 C 
ATOM     16  C   UNL     1     -20.486   1.922 -14.776  1.00  0.00     0.002 C 
ENDBRANCH   5  12
BRANCH  10  17
ATOM     17  N   UNL     1     -12.401   0.245 -14.641  1.00  0.00    -0.383 N 
ATOM     18  H   UNL     1     -12.493  -0.403 -15.413  1.00  0.00     0.158 HD
ATOM     19  H   UNL     1     -11.597   0.126 -14.039  1.00  0.00     0.158 HD
ENDBRANCH  10  17
TORSDOF 2
ENDMDL
