MODEL 1
REMARK VINA RESULT:      -8.9      0.000      0.000
REMARK SMILES Brc1cnc2[nH]cc(-c3ccccc3)c2c1
REMARK SMILES IDX 1 1 2 2 3 3 4 4 5 5 6 6 7 7 8 8 15 9 16 10 9 12 10 13 14 14
REMARK SMILES IDX 11 15 13 16 12 17
REMARK H PARENT 6 11
ROOT
ATOM      1  Br  UNL     1     -16.888   1.041 -15.324  1.00  0.00    -0.049 Br
ATOM      2  C   UNL     1     -18.533   1.891 -14.958  1.00  0.00     0.037 A 
ATOM      3  C   UNL     1     -18.690   3.253 -15.190  1.00  0.00     0.129 A 
ATOM      4  N   UNL     1     -19.820   3.966 -14.962  1.00  0.00    -0.237 NA
ATOM      5  C   UNL     1     -20.821   3.210 -14.472  1.00  0.00     0.137 A 
ATOM      6  N   UNL     1     -22.059   3.690 -14.151  1.00  0.00    -0.346 N 
ATOM      7  C   UNL     1     -22.846   2.671 -13.678  1.00  0.00     0.093 A 
ATOM      8  C   UNL     1     -22.099   1.507 -13.697  1.00  0.00     0.009 A 
ATOM      9  C   UNL     1     -20.803   1.845 -14.200  1.00  0.00     0.028 A 
ATOM     10  C   UNL     1     -19.602   1.155 -14.451  1.00  0.00     0.030 A 
ATOM     11  H   UNL     1     -22.329   4.657 -14.260  1.00  0.00     0.167 HD
ENDROOT
BRANCH   8  12
ATOM     12  C   UNL     1     -22.629   0.219 -13.279  1.00  0.00    -0.016 A 
ATOM     13  C   UNL     1     -23.601  -0.435 -14.046  1.00  0.00     0.009 A 
ATOM     14  C   UNL     1     -22.172  -0.382 -12.099  1.00  0.00     0.009 A 
ATOM     15  C   UNL     1     -24.111  -1.670 -13.636  1.00  0.00     0.001 A 
ATOM     16  C   UNL     1     -22.681  -1.617 -11.691  1.00  0.00     0.001 A 
ATOM     17  C   UNL     1     -23.650  -2.260 -12.460  1.00  0.00     0.000 A 
ENDBRANCH   8  12
TORSDOF 1
ENDMDL
MODEL 2
REMARK VINA RESULT:      -8.5      0.501      1.306
REMARK SMILES Brc1cnc2[nH]cc(-c3ccccc3)c2c1
REMARK SMILES IDX 1 1 2 2 3 3 4 4 5 5 6 6 7 7 8 8 15 9 16 10 9 12 10 13 14 14
REMARK SMILES IDX 11 15 13 16 12 17
REMARK H PARENT 6 11
ROOT
ATOM      1  Br  UNL     1     -16.777   0.200 -15.397  1.00  0.00    -0.049 Br
ATOM      2  C   UNL     1     -18.291   1.277 -15.065  1.00  0.00     0.037 A 
ATOM      3  C   UNL     1     -18.253   2.644 -15.316  1.00  0.00     0.129 A 
ATOM      4  N   UNL     1     -19.275   3.511 -15.112  1.00  0.00    -0.237 NA
ATOM      5  C   UNL     1     -20.378   2.909 -14.628  1.00  0.00     0.137 A 
ATOM      6  N   UNL     1     -21.541   3.562 -14.332  1.00  0.00    -0.346 N 
ATOM      7  C   UNL     1     -22.469   2.670 -13.858  1.00  0.00     0.093 A 
ATOM      8  C   UNL     1     -21.892   1.412 -13.852  1.00  0.00     0.009 A 
ATOM      9  C   UNL     1     -20.555   1.559 -14.340  1.00  0.00     0.028 A 
ATOM     10  C   UNL     1     -19.459   0.705 -14.565  1.00  0.00     0.030 A 
ATOM     11  H   UNL     1     -21.671   4.556 -14.455  1.00  0.00     0.167 HD
ENDROOT
BRANCH   8  12
ATOM     12  C   UNL     1     -22.602   0.217 -13.427  1.00  0.00    -0.016 A 
ATOM     13  C   UNL     1     -22.262  -0.426 -12.230  1.00  0.00     0.009 A 
ATOM     14  C   UNL     1     -23.636  -0.306 -14.212  1.00  0.00     0.009 A 
ATOM     15  C   UNL     1     -22.944  -1.577 -11.828  1.00  0.00     0.001 A 
ATOM     16  C   UNL     1     -24.318  -1.456 -13.809  1.00  0.00     0.001 A 
ATOM     17  C   UNL     1     -23.971  -2.091 -12.617  1.00  0.00     0.000 A 
ENDBRANCH   8  12
TORSDOF 1
ENDMDL
MODEL 3
REMARK VINA RESULT:      -7.6      2.744      5.337
REMARK SMILES Brc1cnc2[nH]cc(-c3ccccc3)c2c1
REMARK SMILES IDX 1 1 2 2 3 3 4 4 5 5 6 6 7 7 8 8 15 9 16 10 9 12 10 13 14 14
REMARK SMILES IDX 11 15 13 16 12 17
REMARK H PARENT 6 11
ROOT
ATOM      1  Br  UNL     1     -23.261   0.225 -13.352  1.00  0.00    -0.049 Br
ATOM      2  C   UNL     1     -21.910   1.456 -13.823  1.00  0.00     0.037 A 
ATOM      3  C   UNL     1     -22.230   2.775 -14.122  1.00  0.00     0.129 A 
ATOM      4  N   UNL     1     -21.346   3.740 -14.474  1.00  0.00    -0.237 NA
ATOM      5  C   UNL     1     -20.077   3.294 -14.510  1.00  0.00     0.137 A 
ATOM      6  N   UNL     1     -19.001   4.066 -14.844  1.00  0.00    -0.346 N 
ATOM      7  C   UNL     1     -17.853   3.316 -14.788  1.00  0.00     0.093 A 
ATOM      8  C   UNL     1     -18.198   2.032 -14.406  1.00  0.00     0.009 A 
ATOM      9  C   UNL     1     -19.617   2.010 -14.231  1.00  0.00     0.028 A 
ATOM     10  C   UNL     1     -20.580   1.046 -13.875  1.00  0.00     0.030 A 
ATOM     11  H   UNL     1     -19.069   5.043 -15.089  1.00  0.00     0.167 HD
ENDROOT
BRANCH   8  12
ATOM     12  C   UNL     1     -17.220   0.971 -14.226  1.00  0.00    -0.016 A 
ATOM     13  C   UNL     1     -16.276   1.038 -13.193  1.00  0.00     0.009 A 
ATOM     14  C   UNL     1     -17.211  -0.133 -15.087  1.00  0.00     0.009 A 
ATOM     15  C   UNL     1     -15.336   0.018 -13.027  1.00  0.00     0.001 A 
ATOM     16  C   UNL     1     -16.272  -1.153 -14.920  1.00  0.00     0.001 A 
ATOM     17  C   UNL     1     -15.335  -1.076 -13.890  1.00  0.00     0.000 A 
ENDBRANCH   8  12
TORSDOF 1
ENDMDL
MODEL 4
REMARK VINA RESULT:      -7.1      2.381      3.992
REMARK SMILES Brc1cnc2[nH]cc(-c3ccccc3)c2c1
REMARK SMILES IDX 1 1 2 2 3 3 4 4 5 5 6 6 7 7 8 8 15 9 16 10 9 12 10 13 14 14
REMARK SMILES IDX 11 15 13 16 12 17
REMARK H PARENT 6 11
ROOT
ATOM      1  Br  UNL     1     -15.396  -1.915 -14.197  1.00  0.00    -0.049 Br
ATOM      2  C   UNL     1     -15.948  -0.203 -14.768  1.00  0.00     0.037 A 
ATOM      3  C   UNL     1     -15.050   0.659 -15.386  1.00  0.00     0.129 A 
ATOM      4  N   UNL     1     -15.334   1.907 -15.832  1.00  0.00    -0.237 NA
ATOM      5  C   UNL     1     -16.617   2.254 -15.619  1.00  0.00     0.137 A 
ATOM      6  N   UNL     1     -17.153   3.461 -15.969  1.00  0.00    -0.346 N 
ATOM      7  C   UNL     1     -18.478   3.503 -15.615  1.00  0.00     0.093 A 
ATOM      8  C   UNL     1     -18.804   2.294 -15.027  1.00  0.00     0.009 A 
ATOM      9  C   UNL     1     -17.618   1.493 -15.023  1.00  0.00     0.028 A 
ATOM     10  C   UNL     1     -17.265   0.207 -14.573  1.00  0.00     0.030 A 
ATOM     11  H   UNL     1     -16.629   4.195 -16.423  1.00  0.00     0.167 HD
ENDROOT
BRANCH   8  12
ATOM     12  C   UNL     1     -20.140   1.981 -14.547  1.00  0.00    -0.016 A 
ATOM     13  C   UNL     1     -21.064   3.004 -14.292  1.00  0.00     0.009 A 
ATOM     14  C   UNL     1     -20.519   0.651 -14.331  1.00  0.00     0.009 A 
ATOM     15  C   UNL     1     -22.345   2.698 -13.826  1.00  0.00     0.001 A 
ATOM     16  C   UNL     1     -21.800   0.346 -13.866  1.00  0.00     0.001 A 
ATOM     17  C   UNL     1     -22.712   1.371 -13.614  1.00  0.00     0.000 A 
ENDBRANCH   8  12
TORSDOF 1
ENDMDL
MODEL 5
REMARK VINA RESULT:      -6.9     10.527     12.149
REMARK SMILES Brc1cnc2[nH]cc(-c3ccccc3)c2c1
REMARK SMILES IDX 1 1 2 2 3 3 4 4 5 5 6 6 7 7 8 8 15 9 16 10 9 12 10 13 14 14
REMARK SMILES IDX 11 15 13 16 12 17
REMARK H PARENT 6 11
ROOT
ATOM      1  Br  UNL     1     -29.205  -2.883  -1.997  1.00  0.00    -0.049 Br
ATOM      2  C   UNL     1     -28.744  -2.561  -3.799  1.00  0.00     0.037 A 
ATOM      3  C   UNL     1     -28.400  -1.283  -4.222  1.00  0.00     0.129 A 
ATOM      4  N   UNL     1     -28.057  -0.937  -5.486  1.00  0.00    -0.237 NA
ATOM      5  C   UNL     1     -28.075  -1.982  -6.334  1.00  0.00     0.137 A 
ATOM      6  N   UNL     1     -27.776  -1.897  -7.664  1.00  0.00    -0.346 N 
ATOM      7  C   UNL     1     -27.889  -3.134  -8.248  1.00  0.00     0.093 A 
ATOM      8  C   UNL     1     -28.266  -4.037  -7.270  1.00  0.00     0.009 A 
ATOM      9  C   UNL     1     -28.391  -3.307  -6.046  1.00  0.00     0.028 A 
ATOM     10  C   UNL     1     -28.746  -3.609  -4.718  1.00  0.00     0.030 A 
ATOM     11  H   UNL     1     -27.511  -1.038  -8.124  1.00  0.00     0.167 HD
ENDROOT
BRANCH   8  12
ATOM     12  C   UNL     1     -28.460  -5.453  -7.533  1.00  0.00    -0.016 A 
ATOM     13  C   UNL     1     -29.643  -6.096  -7.144  1.00  0.00     0.009 A 
ATOM     14  C   UNL     1     -27.463  -6.194  -8.179  1.00  0.00     0.009 A 
ATOM     15  C   UNL     1     -29.822  -7.459  -7.395  1.00  0.00     0.001 A 
ATOM     16  C   UNL     1     -27.643  -7.556  -8.431  1.00  0.00     0.001 A 
ATOM     17  C   UNL     1     -28.823  -8.187  -8.038  1.00  0.00     0.000 A 
ENDBRANCH   8  12
TORSDOF 1
ENDMDL
MODEL 6
REMARK VINA RESULT:      -6.8      7.700     10.258
REMARK SMILES Brc1cnc2[nH]cc(-c3ccccc3)c2c1
REMARK SMILES IDX 1 1 2 2 3 3 4 4 5 5 6 6 7 7 8 8 15 9 16 10 9 12 10 13 14 14
REMARK SMILES IDX 11 15 13 16 12 17
REMARK H PARENT 6 11
ROOT
ATOM      1  Br  UNL     1     -28.334  -7.078  -7.820  1.00  0.00    -0.049 Br
ATOM      2  C   UNL     1     -28.156  -5.277  -7.286  1.00  0.00     0.037 A 
ATOM      3  C   UNL     1     -28.459  -4.893  -5.986  1.00  0.00     0.129 A 
ATOM      4  N   UNL     1     -28.372  -3.633  -5.495  1.00  0.00    -0.237 NA
ATOM      5  C   UNL     1     -27.946  -2.746  -6.414  1.00  0.00     0.137 A 
ATOM      6  N   UNL     1     -27.781  -1.411  -6.174  1.00  0.00    -0.346 N 
ATOM      7  C   UNL     1     -27.339  -0.784  -7.311  1.00  0.00     0.093 A 
ATOM      8  C   UNL     1     -27.214  -1.737  -8.306  1.00  0.00     0.009 A 
ATOM      9  C   UNL     1     -27.603  -2.992  -7.740  1.00  0.00     0.028 A 
ATOM     10  C   UNL     1     -27.718  -4.318  -8.198  1.00  0.00     0.030 A 
ATOM     11  H   UNL     1     -27.963  -0.978  -5.280  1.00  0.00     0.167 HD
ENDROOT
BRANCH   8  12
ATOM     12  C   UNL     1     -26.746  -1.425  -9.646  1.00  0.00    -0.016 A 
ATOM     13  C   UNL     1     -27.652  -1.300 -10.707  1.00  0.00     0.009 A 
ATOM     14  C   UNL     1     -25.379  -1.248  -9.893  1.00  0.00     0.009 A 
ATOM     15  C   UNL     1     -27.197  -1.005 -11.995  1.00  0.00     0.001 A 
ATOM     16  C   UNL     1     -24.925  -0.952 -11.180  1.00  0.00     0.001 A 
ATOM     17  C   UNL     1     -25.834  -0.831 -12.230  1.00  0.00     0.000 A 
ENDBRANCH   8  12
TORSDOF 1
ENDMDL
MODEL 7
REMARK VINA RESULT:      -6.8      4.361      6.558
REMARK SMILES Brc1cnc2[nH]cc(-c3ccccc3)c2c1
REMARK SMILES IDX 1 1 2 2 3 3 4 4 5 5 6 6 7 7 8 8 15 9 16 10 9 12 10 13 14 14
REMARK SMILES IDX 11 15 13 16 12 17
REMARK H PARENT 6 11
ROOT
ATOM      1  Br  UNL     1     -14.977  -2.003 -10.906  1.00  0.00    -0.049 Br
ATOM      2  C   UNL     1     -14.694  -1.145 -12.563  1.00  0.00     0.037 A 
ATOM      3  C   UNL     1     -13.481  -1.278 -13.228  1.00  0.00     0.129 A 
ATOM      4  N   UNL     1     -13.167  -0.706 -14.416  1.00  0.00    -0.237 NA
ATOM      5  C   UNL     1     -14.175   0.031 -14.920  1.00  0.00     0.137 A 
ATOM      6  N   UNL     1     -14.109   0.715 -16.101  1.00  0.00    -0.346 N 
ATOM      7  C   UNL     1     -15.295   1.366 -16.329  1.00  0.00     0.093 A 
ATOM      8  C   UNL     1     -16.146   1.092 -15.273  1.00  0.00     0.009 A 
ATOM      9  C   UNL     1     -15.435   0.243 -14.367  1.00  0.00     0.028 A 
ATOM     10  C   UNL     1     -15.704  -0.371 -13.129  1.00  0.00     0.030 A 
ATOM     11  H   UNL     1     -13.296   0.721 -16.699  1.00  0.00     0.167 HD
ENDROOT
BRANCH   8  12
ATOM     12  C   UNL     1     -17.503   1.606 -15.196  1.00  0.00    -0.016 A 
ATOM     13  C   UNL     1     -18.584   0.738 -14.989  1.00  0.00     0.009 A 
ATOM     14  C   UNL     1     -17.747   2.978 -15.329  1.00  0.00     0.009 A 
ATOM     15  C   UNL     1     -19.887   1.237 -14.921  1.00  0.00     0.001 A 
ATOM     16  C   UNL     1     -19.050   3.476 -15.259  1.00  0.00     0.001 A 
ATOM     17  C   UNL     1     -20.119   2.605 -15.056  1.00  0.00     0.000 A 
ENDBRANCH   8  12
TORSDOF 1
ENDMDL
MODEL 8
REMARK VINA RESULT:      -6.8      5.166      6.773
REMARK SMILES Brc1cnc2[nH]cc(-c3ccccc3)c2c1
REMARK SMILES IDX 1 1 2 2 3 3 4 4 5 5 6 6 7 7 8 8 15 9 16 10 9 12 10 13 14 14
REMARK SMILES IDX 11 15 13 16 12 17
REMARK H PARENT 6 11
ROOT
ATOM      1  Br  UNL     1     -19.556   1.798 -14.919  1.00  0.00    -0.049 Br
ATOM      2  C   UNL     1     -17.746   1.276 -15.028  1.00  0.00     0.037 A 
ATOM      3  C   UNL     1     -16.821   2.071 -15.695  1.00  0.00     0.129 A 
ATOM      4  N   UNL     1     -15.502   1.795 -15.838  1.00  0.00    -0.237 NA
ATOM      5  C   UNL     1     -15.148   0.636 -15.252  1.00  0.00     0.137 A 
ATOM      6  N   UNL     1     -13.879   0.128 -15.259  1.00  0.00    -0.346 N 
ATOM      7  C   UNL     1     -13.850  -1.064 -14.580  1.00  0.00     0.093 A 
ATOM      8  C   UNL     1     -15.129  -1.328 -14.121  1.00  0.00     0.009 A 
ATOM      9  C   UNL     1     -15.963  -0.248 -14.550  1.00  0.00     0.028 A 
ATOM     10  C   UNL     1     -17.326   0.086 -14.438  1.00  0.00     0.030 A 
ATOM     11  H   UNL     1     -13.097   0.585 -15.704  1.00  0.00     0.167 HD
ENDROOT
BRANCH   8  12
ATOM     12  C   UNL     1     -15.461  -2.507 -13.339  1.00  0.00    -0.016 A 
ATOM     13  C   UNL     1     -15.339  -2.495 -11.943  1.00  0.00     0.009 A 
ATOM     14  C   UNL     1     -15.906  -3.673 -13.974  1.00  0.00     0.009 A 
ATOM     15  C   UNL     1     -15.654  -3.633 -11.196  1.00  0.00     0.001 A 
ATOM     16  C   UNL     1     -16.222  -4.810 -13.226  1.00  0.00     0.001 A 
ATOM     17  C   UNL     1     -16.096  -4.789 -11.838  1.00  0.00     0.000 A 
ENDBRANCH   8  12
TORSDOF 1
ENDMDL
MODEL 9
REMARK VINA RESULT:      -6.7     10.531     12.950
REMARK SMILES Brc1cnc2[nH]cc(-c3ccccc3)c2c1
REMARK SMILES IDX 1 1 2 2 3 3 4 4 5 5 6 6 7 7 8 8 15 9 16 10 9 12 10 13 14 14
REMARK SMILES IDX 11 15 13 16 12 17
REMARK H PARENT 6 11
ROOT
ATOM      1  Br  UNL     1     -27.296  -9.164  -9.478  1.00  0.00    -0.049 Br
ATOM      2  C   UNL     1     -28.169  -8.265  -8.067  1.00  0.00     0.037 A 
ATOM      3  C   UNL     1     -28.938  -8.971  -7.150  1.00  0.00     0.129 A 
ATOM      4  N   UNL     1     -29.609  -8.431  -6.103  1.00  0.00    -0.237 NA
ATOM      5  C   UNL     1     -29.459  -7.096  -6.023  1.00  0.00     0.137 A 
ATOM      6  N   UNL     1     -30.039  -6.314  -5.064  1.00  0.00    -0.346 N 
ATOM      7  C   UNL     1     -29.694  -5.001  -5.261  1.00  0.00     0.093 A 
ATOM      8  C   UNL     1     -28.870  -4.936  -6.371  1.00  0.00     0.009 A 
ATOM      9  C   UNL     1     -28.719  -6.270  -6.864  1.00  0.00     0.028 A 
ATOM     10  C   UNL     1     -28.046  -6.883  -7.938  1.00  0.00     0.030 A 
ATOM     11  H   UNL     1     -30.629  -6.677  -4.330  1.00  0.00     0.167 HD
ENDROOT
BRANCH   8  12
ATOM     12  C   UNL     1     -28.296  -3.692  -6.858  1.00  0.00    -0.016 A 
ATOM     13  C   UNL     1     -27.824  -2.724  -5.962  1.00  0.00     0.009 A 
ATOM     14  C   UNL     1     -28.211  -3.446  -8.234  1.00  0.00     0.009 A 
ATOM     15  C   UNL     1     -27.278  -1.529  -6.436  1.00  0.00     0.001 A 
ATOM     16  C   UNL     1     -27.665  -2.251  -8.707  1.00  0.00     0.001 A 
ATOM     17  C   UNL     1     -27.199  -1.293  -7.807  1.00  0.00     0.000 A 
ENDBRANCH   8  12
TORSDOF 1
ENDMDL
