MODEL 1
REMARK VINA RESULT:     -10.1      0.000      0.000
REMARK SMILES C#Cc1cc2c(N3CCN(C(=O)Nc4ccc(OCC)cc4)CC3)ncnc2[nH]1
REMARK SMILES IDX 14 1 15 2 16 3 17 4 21 5 22 6 13 7 7 8 8 9 24 10 9 11 23 12
REMARK SMILES IDX 10 13 11 14 12 15 6 17 2 18 3 19 4 20 29 21 5 22 28 23 27 24
REMARK SMILES IDX 25 25 26 26 1 27 18 29 19 30 20 31
REMARK H PARENT 13 16 29 28
ROOT
ATOM      1  C   UNL     1      31.764 100.347   9.255  1.00  0.00     0.043 A 
ATOM      2  C   UNL     1      32.837 100.146  10.125  1.00  0.00     0.030 A 
ATOM      3  C   UNL     1      33.744  99.097   9.912  1.00  0.00     0.048 A 
ATOM      4  C   UNL     1      33.583  98.235   8.830  1.00  0.00     0.119 A 
ATOM      5  C   UNL     1      32.504  98.427   7.966  1.00  0.00     0.048 A 
ATOM      6  C   UNL     1      31.599  99.472   8.176  1.00  0.00     0.030 A 
ENDROOT
BRANCH   1   7
ATOM      7  N   UNL     1      30.806 101.367   9.416  1.00  0.00    -0.308 N 
ATOM      8  N   UNL     1      26.723 104.346  10.042  1.00  0.00    -0.352 N 
ATOM      9  C   UNL     1      27.443 104.223  11.328  1.00  0.00     0.139 C 
ATOM     10  C   UNL     1      27.594 104.072   8.882  1.00  0.00     0.139 C 
ATOM     11  C   UNL     1      28.165 102.871  11.455  1.00  0.00     0.143 C 
ATOM     12  C   UNL     1      28.359 102.739   9.001  1.00  0.00     0.143 C 
ATOM     13  N   UNL     1      29.029 102.577  10.304  1.00  0.00    -0.321 N 
ATOM     14  C   UNL     1      30.008 101.597  10.515  1.00  0.00     0.321 C 
ATOM     15  O   UNL     1      30.137 101.042  11.603  1.00  0.00    -0.248 OA
ATOM     16  H   UNL     1      30.874 102.140   8.774  1.00  0.00     0.171 HD
BRANCH   8  17
ATOM     17  C   UNL     1      25.480 103.697  10.017  1.00  0.00     0.141 A 
ATOM     18  C   UNL     1      24.500 101.495   5.588  1.00  0.00    -0.052 C 
ATOM     19  C   UNL     1      24.482 102.001   6.914  1.00  0.00     0.091 A 
ATOM     20  C   UNL     1      25.458 102.729   7.562  1.00  0.00     0.051 A 
ATOM     21  N   UNL     1      23.446 101.825   7.792  1.00  0.00    -0.333 N 
ATOM     22  C   UNL     1      24.990 103.018   8.879  1.00  0.00     0.063 A 
ATOM     23  C   UNL     1      23.744 102.418   8.987  1.00  0.00     0.143 A 
ATOM     24  N   UNL     1      22.946 102.398  10.061  1.00  0.00    -0.218 NA
ATOM     25  N   UNL     1      24.708 103.659  11.137  1.00  0.00    -0.219 NA
ATOM     26  C   UNL     1      23.513 103.036  11.096  1.00  0.00     0.226 A 
ATOM     27  C   UNL     1      24.516 101.067   4.467  1.00  0.00     0.011 C 
ATOM     28  H   UNL     1      22.592 101.320   7.609  1.00  0.00     0.169 HD
ENDBRANCH   8  17
ENDBRANCH   1   7
BRANCH   4  29
ATOM     29  O   UNL     1      34.392  97.180   8.511  1.00  0.00    -0.494 OA
BRANCH  29  30
ATOM     30  C   UNL     1      35.218  96.662   9.552  1.00  0.00     0.226 C 
ATOM     31  C   UNL     1      34.744  95.254   9.868  1.00  0.00     0.049 C 
ENDBRANCH  29  30
ENDBRANCH   4  29
TORSDOF 4
ENDMDL
MODEL 2
REMARK VINA RESULT:      -9.8      3.247      6.813
REMARK SMILES C#Cc1cc2c(N3CCN(C(=O)Nc4ccc(OCC)cc4)CC3)ncnc2[nH]1
REMARK SMILES IDX 14 1 15 2 16 3 17 4 21 5 22 6 13 7 7 8 8 9 24 10 9 11 23 12
REMARK SMILES IDX 10 13 11 14 12 15 6 17 2 18 3 19 4 20 29 21 5 22 28 23 27 24
REMARK SMILES IDX 25 25 26 26 1 27 18 29 19 30 20 31
REMARK H PARENT 13 16 29 28
ROOT
ATOM      1  C   UNL     1      35.889  94.929  10.283  1.00  0.00     0.043 A 
ATOM      2  C   UNL     1      36.990  95.321  11.046  1.00  0.00     0.030 A 
ATOM      3  C   UNL     1      37.895  94.369  11.540  1.00  0.00     0.048 A 
ATOM      4  C   UNL     1      37.703  93.014  11.281  1.00  0.00     0.119 A 
ATOM      5  C   UNL     1      36.597  92.619  10.528  1.00  0.00     0.048 A 
ATOM      6  C   UNL     1      35.694  93.566  10.035  1.00  0.00     0.030 A 
ENDROOT
BRANCH   1   7
ATOM      7  N   UNL     1      34.933  95.826   9.770  1.00  0.00    -0.308 N 
ATOM      8  N   UNL     1      31.583  99.521   8.737  1.00  0.00    -0.352 N 
ATOM      9  C   UNL     1      32.858  99.807   8.045  1.00  0.00     0.139 C 
ATOM     10  C   UNL     1      31.426  98.088   9.057  1.00  0.00     0.139 C 
ATOM     11  C   UNL     1      34.068  99.252   8.817  1.00  0.00     0.143 C 
ATOM     12  C   UNL     1      32.642  97.498   9.799  1.00  0.00     0.143 C 
ATOM     13  N   UNL     1      33.925  97.830   9.153  1.00  0.00    -0.321 N 
ATOM     14  C   UNL     1      35.112  97.161   9.480  1.00  0.00     0.321 C 
ATOM     15  O   UNL     1      36.197  97.735   9.463  1.00  0.00    -0.248 OA
ATOM     16  H   UNL     1      34.117  95.409   9.353  1.00  0.00     0.171 HD
BRANCH   8  17
ATOM     17  C   UNL     1      31.295 100.399   9.791  1.00  0.00     0.141 A 
ATOM     18  C   UNL     1      26.743 102.530   9.385  1.00  0.00    -0.052 C 
ATOM     19  C   UNL     1      28.044 102.112   9.768  1.00  0.00     0.091 A 
ATOM     20  C   UNL     1      28.871 101.211   9.132  1.00  0.00     0.051 A 
ATOM     21  N   UNL     1      28.699 102.558  10.885  1.00  0.00    -0.333 N 
ATOM     22  C   UNL     1      30.081 101.116   9.884  1.00  0.00     0.063 A 
ATOM     23  C   UNL     1      29.922 101.954  10.978  1.00  0.00     0.143 A 
ATOM     24  N   UNL     1      30.792 102.158  11.975  1.00  0.00    -0.218 NA
ATOM     25  N   UNL     1      32.181 100.555  10.812  1.00  0.00    -0.219 NA
ATOM     26  C   UNL     1      31.892 101.408  11.815  1.00  0.00     0.226 A 
ATOM     27  C   UNL     1      25.642 102.883   9.061  1.00  0.00     0.011 C 
ATOM     28  H   UNL     1      28.341 103.218  11.560  1.00  0.00     0.169 HD
ENDBRANCH   8  17
ENDBRANCH   1   7
BRANCH   4  29
ATOM     29  O   UNL     1      38.506  91.991  11.701  1.00  0.00    -0.494 OA
BRANCH  29  30
ATOM     30  C   UNL     1      38.034  90.664  11.472  1.00  0.00     0.226 C 
ATOM     31  C   UNL     1      39.230  89.729  11.507  1.00  0.00     0.049 C 
ENDBRANCH  29  30
ENDBRANCH   4  29
TORSDOF 4
ENDMDL
MODEL 3
REMARK VINA RESULT:      -9.0      9.594     16.790
REMARK SMILES C#Cc1cc2c(N3CCN(C(=O)Nc4ccc(OCC)cc4)CC3)ncnc2[nH]1
REMARK SMILES IDX 14 1 15 2 16 3 17 4 21 5 22 6 13 7 7 8 8 9 24 10 9 11 23 12
REMARK SMILES IDX 10 13 11 14 12 15 6 17 2 18 3 19 4 20 29 21 5 22 28 23 27 24
REMARK SMILES IDX 25 25 26 26 1 27 18 29 19 30 20 31
REMARK H PARENT 13 16 29 28
ROOT
ATOM      1  C   UNL     1      37.035  94.261  10.675  1.00  0.00     0.043 A 
ATOM      2  C   UNL     1      37.654  95.350  11.291  1.00  0.00     0.030 A 
ATOM      3  C   UNL     1      37.105  96.637  11.191  1.00  0.00     0.048 A 
ATOM      4  C   UNL     1      35.934  96.849  10.467  1.00  0.00     0.119 A 
ATOM      5  C   UNL     1      35.320  95.764   9.840  1.00  0.00     0.048 A 
ATOM      6  C   UNL     1      35.866  94.480   9.939  1.00  0.00     0.030 A 
ENDROOT
BRANCH   1   7
ATOM      7  N   UNL     1      37.538  92.946  10.720  1.00  0.00    -0.308 N 
ATOM      8  N   UNL     1      38.809  88.103  11.648  1.00  0.00    -0.352 N 
ATOM      9  C   UNL     1      37.821  88.149  10.549  1.00  0.00     0.139 C 
ATOM     10  C   UNL     1      39.540  89.376  11.801  1.00  0.00     0.139 C 
ATOM     11  C   UNL     1      36.867  89.349  10.684  1.00  0.00     0.143 C 
ATOM     12  C   UNL     1      38.608  90.600  11.901  1.00  0.00     0.143 C 
ATOM     13  N   UNL     1      37.577  90.624  10.847  1.00  0.00    -0.321 N 
ATOM     14  C   UNL     1      36.828  91.775  10.573  1.00  0.00     0.321 C 
ATOM     15  O   UNL     1      35.659  91.707  10.201  1.00  0.00    -0.248 OA
ATOM     16  H   UNL     1      38.534  92.852  10.613  1.00  0.00     0.171 HD
BRANCH   8  17
ATOM     17  C   UNL     1      38.314  87.556  12.841  1.00  0.00     0.141 A 
ATOM     18  C   UNL     1      41.825  87.184  16.440  1.00  0.00    -0.052 C 
ATOM     19  C   UNL     1      40.645  87.154  15.652  1.00  0.00     0.091 A 
ATOM     20  C   UNL     1      40.475  87.589  14.355  1.00  0.00     0.051 A 
ATOM     21  N   UNL     1      39.439  86.673  16.089  1.00  0.00    -0.333 N 
ATOM     22  C   UNL     1      39.118  87.350  13.984  1.00  0.00     0.063 A 
ATOM     23  C   UNL     1      38.504  86.800  15.100  1.00  0.00     0.143 A 
ATOM     24  N   UNL     1      37.218  86.447  15.225  1.00  0.00    -0.218 NA
ATOM     25  N   UNL     1      36.994  87.244  12.952  1.00  0.00    -0.219 NA
ATOM     26  C   UNL     1      36.533  86.714  14.103  1.00  0.00     0.226 A 
ATOM     27  C   UNL     1      42.823  87.210  17.107  1.00  0.00     0.011 C 
ATOM     28  H   UNL     1      39.246  86.297  17.005  1.00  0.00     0.169 HD
ENDBRANCH   8  17
ENDBRANCH   1   7
BRANCH   4  29
ATOM     29  O   UNL     1      35.299  98.046  10.291  1.00  0.00    -0.494 OA
BRANCH  29  30
ATOM     30  C   UNL     1      33.878  98.013  10.175  1.00  0.00     0.226 C 
ATOM     31  C   UNL     1      33.479  98.944   9.043  1.00  0.00     0.049 C 
ENDBRANCH  29  30
ENDBRANCH   4  29
TORSDOF 4
ENDMDL
MODEL 4
REMARK VINA RESULT:      -8.9     10.047     17.319
REMARK SMILES C#Cc1cc2c(N3CCN(C(=O)Nc4ccc(OCC)cc4)CC3)ncnc2[nH]1
REMARK SMILES IDX 14 1 15 2 16 3 17 4 21 5 22 6 13 7 7 8 8 9 24 10 9 11 23 12
REMARK SMILES IDX 10 13 11 14 12 15 6 17 2 18 3 19 4 20 29 21 5 22 28 23 27 24
REMARK SMILES IDX 25 25 26 26 1 27 18 29 19 30 20 31
REMARK H PARENT 13 16 29 28
ROOT
ATOM      1  C   UNL     1      36.929  93.445  10.734  1.00  0.00     0.043 A 
ATOM      2  C   UNL     1      37.716  94.419  11.350  1.00  0.00     0.030 A 
ATOM      3  C   UNL     1      37.377  95.777  11.257  1.00  0.00     0.048 A 
ATOM      4  C   UNL     1      36.252  96.175  10.540  1.00  0.00     0.119 A 
ATOM      5  C   UNL     1      35.470  95.204   9.913  1.00  0.00     0.048 A 
ATOM      6  C   UNL     1      35.805  93.849  10.006  1.00  0.00     0.030 A 
ENDROOT
BRANCH   1   7
ATOM      7  N   UNL     1      37.217  92.066  10.773  1.00  0.00    -0.308 N 
ATOM      8  N   UNL     1      38.343  87.216  11.842  1.00  0.00    -0.352 N 
ATOM      9  C   UNL     1      36.886  87.346  11.630  1.00  0.00     0.139 C 
ATOM     10  C   UNL     1      39.105  88.300  11.192  1.00  0.00     0.139 C 
ATOM     11  C   UNL     1      36.368  88.737  12.034  1.00  0.00     0.143 C 
ATOM     12  C   UNL     1      38.583  89.706  11.551  1.00  0.00     0.143 C 
ATOM     13  N   UNL     1      37.121  89.830  11.404  1.00  0.00    -0.321 N 
ATOM     14  C   UNL     1      36.483  91.077  11.389  1.00  0.00     0.321 C 
ATOM     15  O   UNL     1      35.358  91.228  11.858  1.00  0.00    -0.248 OA
ATOM     16  H   UNL     1      37.884  91.737  10.094  1.00  0.00     0.171 HD
BRANCH   8  17
ATOM     17  C   UNL     1      38.707  86.949  13.170  1.00  0.00     0.141 A 
ATOM     18  C   UNL     1      43.596  87.786  14.075  1.00  0.00    -0.052 C 
ATOM     19  C   UNL     1      42.215  87.462  14.133  1.00  0.00     0.091 A 
ATOM     20  C   UNL     1      41.279  87.540  13.124  1.00  0.00     0.051 A 
ATOM     21  N   UNL     1      41.577  87.009  15.257  1.00  0.00    -0.333 N 
ATOM     22  C   UNL     1      40.026  87.104  13.651  1.00  0.00     0.063 A 
ATOM     23  C   UNL     1      40.252  86.805  14.987  1.00  0.00     0.143 A 
ATOM     24  N   UNL     1      39.352  86.390  15.887  1.00  0.00    -0.218 NA
ATOM     25  N   UNL     1      37.763  86.568  14.072  1.00  0.00    -0.219 NA
ATOM     26  C   UNL     1      38.128  86.309  15.344  1.00  0.00     0.226 A 
ATOM     27  C   UNL     1      44.763  88.060  14.027  1.00  0.00     0.011 C 
ATOM     28  H   UNL     1      41.999  86.861  16.161  1.00  0.00     0.169 HD
ENDBRANCH   8  17
ENDBRANCH   1   7
BRANCH   4  29
ATOM     29  O   UNL     1      35.813  97.458  10.372  1.00  0.00    -0.494 OA
BRANCH  29  30
ATOM     30  C   UNL     1      34.402  97.662  10.346  1.00  0.00     0.226 C 
ATOM     31  C   UNL     1      34.104  98.752   9.331  1.00  0.00     0.049 C 
ENDBRANCH  29  30
ENDBRANCH   4  29
TORSDOF 4
ENDMDL
MODEL 5
REMARK VINA RESULT:      -8.8      4.024      8.138
REMARK SMILES C#Cc1cc2c(N3CCN(C(=O)Nc4ccc(OCC)cc4)CC3)ncnc2[nH]1
REMARK SMILES IDX 14 1 15 2 16 3 17 4 21 5 22 6 13 7 7 8 8 9 24 10 9 11 23 12
REMARK SMILES IDX 10 13 11 14 12 15 6 17 2 18 3 19 4 20 29 21 5 22 28 23 27 24
REMARK SMILES IDX 25 25 26 26 1 27 18 29 19 30 20 31
REMARK H PARENT 13 16 29 28
ROOT
ATOM      1  C   UNL     1      22.851  99.180   5.758  1.00  0.00     0.043 A 
ATOM      2  C   UNL     1      22.826  99.036   4.370  1.00  0.00     0.030 A 
ATOM      3  C   UNL     1      22.343  97.859   3.780  1.00  0.00     0.048 A 
ATOM      4  C   UNL     1      21.886  96.810   4.573  1.00  0.00     0.119 A 
ATOM      5  C   UNL     1      21.921  96.946   5.962  1.00  0.00     0.048 A 
ATOM      6  C   UNL     1      22.402  98.120   6.552  1.00  0.00     0.030 A 
ENDROOT
BRANCH   1   7
ATOM      7  N   UNL     1      23.336 100.326   6.418  1.00  0.00    -0.308 N 
ATOM      8  N   UNL     1      25.304 103.868   9.502  1.00  0.00    -0.352 N 
ATOM      9  C   UNL     1      26.295 103.517   8.463  1.00  0.00     0.139 C 
ATOM     10  C   UNL     1      23.921 103.557   9.089  1.00  0.00     0.139 C 
ATOM     11  C   UNL     1      26.147 102.059   7.996  1.00  0.00     0.143 C 
ATOM     12  C   UNL     1      23.753 102.112   8.582  1.00  0.00     0.143 C 
ATOM     13  N   UNL     1      24.774 101.729   7.590  1.00  0.00    -0.321 N 
ATOM     14  C   UNL     1      24.636 100.587   6.790  1.00  0.00     0.321 C 
ATOM     15  O   UNL     1      25.611  99.926   6.442  1.00  0.00    -0.248 OA
ATOM     16  H   UNL     1      22.730 101.130   6.408  1.00  0.00     0.171 HD
BRANCH   8  17
ATOM     17  C   UNL     1      25.650 103.436  10.791  1.00  0.00     0.141 A 
ATOM     18  C   UNL     1      30.350 101.632  11.066  1.00  0.00    -0.052 C 
ATOM     19  C   UNL     1      29.018 102.062  11.304  1.00  0.00     0.091 A 
ATOM     20  C   UNL     1      28.131 102.622  10.410  1.00  0.00     0.051 A 
ATOM     21  N   UNL     1      28.390 101.988  12.519  1.00  0.00    -0.333 N 
ATOM     22  C   UNL     1      26.912 102.886  11.105  1.00  0.00     0.063 A 
ATOM     23  C   UNL     1      27.125 102.497  12.419  1.00  0.00     0.143 A 
ATOM     24  N   UNL     1      26.265 102.592  13.441  1.00  0.00    -0.218 NA
ATOM     25  N   UNL     1      24.770 103.583  11.818  1.00  0.00    -0.219 NA
ATOM     26  C   UNL     1      25.113 103.157  13.051  1.00  0.00     0.226 A 
ATOM     27  C   UNL     1      31.476 101.268  10.865  1.00  0.00     0.011 C 
ATOM     28  H   UNL     1      28.791 101.633  13.375  1.00  0.00     0.169 HD
ENDBRANCH   8  17
ENDBRANCH   1   7
BRANCH   4  29
ATOM     29  O   UNL     1      21.393  95.615   4.127  1.00  0.00    -0.494 OA
BRANCH  29  30
ATOM     30  C   UNL     1      21.885  94.436   4.761  1.00  0.00     0.226 C 
ATOM     31  C   UNL     1      22.288  93.454   3.675  1.00  0.00     0.049 C 
ENDBRANCH  29  30
ENDBRANCH   4  29
TORSDOF 4
ENDMDL
MODEL 6
REMARK VINA RESULT:      -8.5     13.642     15.709
REMARK SMILES C#Cc1cc2c(N3CCN(C(=O)Nc4ccc(OCC)cc4)CC3)ncnc2[nH]1
REMARK SMILES IDX 14 1 15 2 16 3 17 4 21 5 22 6 13 7 7 8 8 9 24 10 9 11 23 12
REMARK SMILES IDX 10 13 11 14 12 15 6 17 2 18 3 19 4 20 29 21 5 22 28 23 27 24
REMARK SMILES IDX 25 25 26 26 1 27 18 29 19 30 20 31
REMARK H PARENT 13 16 29 28
ROOT
ATOM      1  C   UNL     1      37.119  86.962  13.120  1.00  0.00     0.043 A 
ATOM      2  C   UNL     1      38.432  87.394  12.930  1.00  0.00     0.030 A 
ATOM      3  C   UNL     1      39.382  87.274  13.955  1.00  0.00     0.048 A 
ATOM      4  C   UNL     1      39.025  86.725  15.184  1.00  0.00     0.119 A 
ATOM      5  C   UNL     1      37.709  86.303  15.381  1.00  0.00     0.048 A 
ATOM      6  C   UNL     1      36.761  86.422  14.360  1.00  0.00     0.030 A 
ENDROOT
BRANCH   1   7
ATOM      7  N   UNL     1      36.110  87.067  12.142  1.00  0.00    -0.308 N 
ATOM      8  N   UNL     1      31.886  87.569   9.343  1.00  0.00    -0.352 N 
ATOM      9  C   UNL     1      32.645  88.837   9.317  1.00  0.00     0.139 C 
ATOM     10  C   UNL     1      32.739  86.409   9.667  1.00  0.00     0.139 C 
ATOM     11  C   UNL     1      33.445  89.055  10.614  1.00  0.00     0.143 C 
ATOM     12  C   UNL     1      33.580  86.615  10.943  1.00  0.00     0.143 C 
ATOM     13  N   UNL     1      34.293  87.906  10.958  1.00  0.00    -0.321 N 
ATOM     14  C   UNL     1      35.330  88.167  11.863  1.00  0.00     0.321 C 
ATOM     15  O   UNL     1      35.518  89.293  12.316  1.00  0.00    -0.248 OA
ATOM     16  H   UNL     1      36.118  86.361  11.424  1.00  0.00     0.171 HD
BRANCH   8  17
ATOM     17  C   UNL     1      30.681  87.637  10.057  1.00  0.00     0.141 A 
ATOM     18  C   UNL     1      27.101  84.632   8.164  1.00  0.00    -0.052 C 
ATOM     19  C   UNL     1      27.877  85.558   8.910  1.00  0.00     0.091 A 
ATOM     20  C   UNL     1      29.192  85.923   8.711  1.00  0.00     0.051 A 
ATOM     21  N   UNL     1      27.412  86.255   9.994  1.00  0.00    -0.333 N 
ATOM     22  C   UNL     1      29.536  86.889   9.705  1.00  0.00     0.063 A 
ATOM     23  C   UNL     1      28.406  87.049  10.495  1.00  0.00     0.143 A 
ATOM     24  N   UNL     1      28.277  87.833  11.573  1.00  0.00    -0.218 NA
ATOM     25  N   UNL     1      30.592  88.412  11.172  1.00  0.00    -0.219 NA
ATOM     26  C   UNL     1      29.425  88.472  11.845  1.00  0.00     0.226 A 
ATOM     27  C   UNL     1      26.446  83.848   7.535  1.00  0.00     0.011 C 
ATOM     28  H   UNL     1      26.487  86.190  10.390  1.00  0.00     0.169 HD
ENDBRANCH   8  17
ENDBRANCH   1   7
BRANCH   4  29
ATOM     29  O   UNL     1      39.849  86.551  16.261  1.00  0.00    -0.494 OA
BRANCH  29  30
ATOM     30  C   UNL     1      41.144  87.143  16.185  1.00  0.00     0.226 C 
ATOM     31  C   UNL     1      41.860  86.872  17.497  1.00  0.00     0.049 C 
ENDBRANCH  29  30
ENDBRANCH   4  29
TORSDOF 4
ENDMDL
MODEL 7
REMARK VINA RESULT:      -8.0     13.771     17.571
REMARK SMILES C#Cc1cc2c(N3CCN(C(=O)Nc4ccc(OCC)cc4)CC3)ncnc2[nH]1
REMARK SMILES IDX 14 1 15 2 16 3 17 4 21 5 22 6 13 7 7 8 8 9 24 10 9 11 23 12
REMARK SMILES IDX 10 13 11 14 12 15 6 17 2 18 3 19 4 20 29 21 5 22 28 23 27 24
REMARK SMILES IDX 25 25 26 26 1 27 18 29 19 30 20 31
REMARK H PARENT 13 16 29 28
ROOT
ATOM      1  C   UNL     1      32.514  87.592  10.528  1.00  0.00     0.043 A 
ATOM      2  C   UNL     1      31.993  88.807  10.977  1.00  0.00     0.030 A 
ATOM      3  C   UNL     1      30.609  88.981  11.128  1.00  0.00     0.048 A 
ATOM      4  C   UNL     1      29.732  87.943  10.823  1.00  0.00     0.119 A 
ATOM      5  C   UNL     1      30.249  86.732  10.361  1.00  0.00     0.048 A 
ATOM      6  C   UNL     1      31.628  86.557  10.211  1.00  0.00     0.030 A 
ENDROOT
BRANCH   1   7
ATOM      7  N   UNL     1      33.889  87.352  10.338  1.00  0.00    -0.308 N 
ATOM      8  N   UNL     1      38.958  86.892  10.497  1.00  0.00    -0.352 N 
ATOM      9  C   UNL     1      38.337  85.595  10.836  1.00  0.00     0.139 C 
ATOM     10  C   UNL     1      38.056  87.761   9.715  1.00  0.00     0.139 C 
ATOM     11  C   UNL     1      36.970  85.772  11.520  1.00  0.00     0.143 C 
ATOM     12  C   UNL     1      36.666  87.927  10.361  1.00  0.00     0.143 C 
ATOM     13  N   UNL     1      36.063  86.642  10.761  1.00  0.00    -0.321 N 
ATOM     14  C   UNL     1      34.704  86.533  11.087  1.00  0.00     0.321 C 
ATOM     15  O   UNL     1      34.310  85.743  11.940  1.00  0.00    -0.248 OA
ATOM     16  H   UNL     1      34.261  87.611   9.439  1.00  0.00     0.171 HD
BRANCH   8  17
ATOM     17  C   UNL     1      39.597  87.520  11.576  1.00  0.00     0.141 A 
ATOM     18  C   UNL     1      39.049  92.532  11.541  1.00  0.00    -0.052 C 
ATOM     19  C   UNL     1      39.379  91.180  11.818  1.00  0.00     0.091 A 
ATOM     20  C   UNL     1      39.014  90.052  11.114  1.00  0.00     0.051 A 
ATOM     21  N   UNL     1      40.139  90.775  12.884  1.00  0.00    -0.333 N 
ATOM     22  C   UNL     1      39.586  88.919  11.768  1.00  0.00     0.063 A 
ATOM     23  C   UNL     1      40.259  89.413  12.877  1.00  0.00     0.143 A 
ATOM     24  N   UNL     1      40.918  88.707  13.803  1.00  0.00    -0.218 NA
ATOM     25  N   UNL     1      40.226  86.774  12.525  1.00  0.00    -0.219 NA
ATOM     26  C   UNL     1      40.841  87.391  13.553  1.00  0.00     0.226 A 
ATOM     27  C   UNL     1      38.770  93.676  11.307  1.00  0.00     0.011 C 
ATOM     28  H   UNL     1      40.541  91.374  13.588  1.00  0.00     0.169 HD
ENDBRANCH   8  17
ENDBRANCH   1   7
BRANCH   4  29
ATOM     29  O   UNL     1      28.369  87.982  10.925  1.00  0.00    -0.494 OA
BRANCH  29  30
ATOM     30  C   UNL     1      27.726  86.821  11.446  1.00  0.00     0.226 C 
ATOM     31  C   UNL     1      27.957  86.792  12.947  1.00  0.00     0.049 C 
ENDBRANCH  29  30
ENDBRANCH   4  29
TORSDOF 4
ENDMDL
MODEL 8
REMARK VINA RESULT:      -7.9      2.214      3.444
REMARK SMILES C#Cc1cc2c(N3CCN(C(=O)Nc4ccc(OCC)cc4)CC3)ncnc2[nH]1
REMARK SMILES IDX 14 1 15 2 16 3 17 4 21 5 22 6 13 7 7 8 8 9 24 10 9 11 23 12
REMARK SMILES IDX 10 13 11 14 12 15 6 17 2 18 3 19 4 20 29 21 5 22 28 23 27 24
REMARK SMILES IDX 25 25 26 26 1 27 18 29 19 30 20 31
REMARK H PARENT 13 16 29 28
ROOT
ATOM      1  C   UNL     1      31.669  99.038   8.927  1.00  0.00     0.043 A 
ATOM      2  C   UNL     1      31.466  97.700   9.267  1.00  0.00     0.030 A 
ATOM      3  C   UNL     1      32.536  96.794   9.281  1.00  0.00     0.048 A 
ATOM      4  C   UNL     1      33.821  97.217   8.949  1.00  0.00     0.119 A 
ATOM      5  C   UNL     1      34.025  98.551   8.598  1.00  0.00     0.048 A 
ATOM      6  C   UNL     1      32.958  99.456   8.583  1.00  0.00     0.030 A 
ENDROOT
BRANCH   1   7
ATOM      7  N   UNL     1      30.639  99.998   8.876  1.00  0.00    -0.308 N 
ATOM      8  N   UNL     1      26.804 103.268   9.606  1.00  0.00    -0.352 N 
ATOM      9  C   UNL     1      28.083 104.007   9.595  1.00  0.00     0.139 C 
ATOM     10  C   UNL     1      26.895 101.974   8.901  1.00  0.00     0.139 C 
ATOM     11  C   UNL     1      29.249 103.148  10.115  1.00  0.00     0.143 C 
ATOM     12  C   UNL     1      28.078 101.108   9.379  1.00  0.00     0.143 C 
ATOM     13  N   UNL     1      29.349 101.852   9.432  1.00  0.00    -0.321 N 
ATOM     14  C   UNL     1      30.584 101.200   9.547  1.00  0.00     0.321 C 
ATOM     15  O   UNL     1      31.519 101.700  10.167  1.00  0.00    -0.248 OA
ATOM     16  H   UNL     1      29.999  99.916   8.104  1.00  0.00     0.171 HD
BRANCH   8  17
ATOM     17  C   UNL     1      26.184 103.216  10.863  1.00  0.00     0.141 A 
ATOM     18  C   UNL     1      22.304 106.409  11.277  1.00  0.00    -0.052 C 
ATOM     19  C   UNL     1      23.321 105.438  11.468  1.00  0.00     0.091 A 
ATOM     20  C   UNL     1      24.270 105.009  10.565  1.00  0.00     0.051 A 
ATOM     21  N   UNL     1      23.515 104.745  12.634  1.00  0.00    -0.333 N 
ATOM     22  C   UNL     1      25.081 104.027  11.211  1.00  0.00     0.063 A 
ATOM     23  C   UNL     1      24.561 103.877  12.489  1.00  0.00     0.143 A 
ATOM     24  N   UNL     1      24.983 103.035  13.440  1.00  0.00    -0.218 NA
ATOM     25  N   UNL     1      26.609 102.322  11.797  1.00  0.00    -0.219 NA
ATOM     26  C   UNL     1      26.007 102.287  13.003  1.00  0.00     0.226 A 
ATOM     27  C   UNL     1      21.443 107.230  11.114  1.00  0.00     0.011 C 
ATOM     28  H   UNL     1      22.965 104.833  13.475  1.00  0.00     0.169 HD
ENDBRANCH   8  17
ENDBRANCH   1   7
BRANCH   4  29
ATOM     29  O   UNL     1      34.945  96.440   8.924  1.00  0.00    -0.494 OA
BRANCH  29  30
ATOM     30  C   UNL     1      34.955  95.288   9.766  1.00  0.00     0.226 C 
ATOM     31  C   UNL     1      36.248  95.300  10.562  1.00  0.00     0.049 C 
ENDBRANCH  29  30
ENDBRANCH   4  29
TORSDOF 4
ENDMDL
MODEL 9
REMARK VINA RESULT:      -7.7      9.947     16.395
REMARK SMILES C#Cc1cc2c(N3CCN(C(=O)Nc4ccc(OCC)cc4)CC3)ncnc2[nH]1
REMARK SMILES IDX 14 1 15 2 16 3 17 4 21 5 22 6 13 7 7 8 8 9 24 10 9 11 23 12
REMARK SMILES IDX 10 13 11 14 12 15 6 17 2 18 3 19 4 20 29 21 5 22 28 23 27 24
REMARK SMILES IDX 25 25 26 26 1 27 18 29 19 30 20 31
REMARK H PARENT 13 16 29 28
ROOT
ATOM      1  C   UNL     1      36.806  93.205  11.170  1.00  0.00     0.043 A 
ATOM      2  C   UNL     1      35.886  93.563  10.183  1.00  0.00     0.030 A 
ATOM      3  C   UNL     1      35.678  94.911   9.853  1.00  0.00     0.048 A 
ATOM      4  C   UNL     1      36.384  95.914  10.512  1.00  0.00     0.119 A 
ATOM      5  C   UNL     1      37.296  95.559  11.507  1.00  0.00     0.048 A 
ATOM      6  C   UNL     1      37.504  94.216  11.837  1.00  0.00     0.030 A 
ENDROOT
BRANCH   1   7
ATOM      7  N   UNL     1      37.054  91.875  11.564  1.00  0.00    -0.308 N 
ATOM      8  N   UNL     1      37.991  86.894  12.060  1.00  0.00    -0.352 N 
ATOM      9  C   UNL     1      39.236  87.654  12.303  1.00  0.00     0.139 C 
ATOM     10  C   UNL     1      36.781  87.711  12.278  1.00  0.00     0.139 C 
ATOM     11  C   UNL     1      39.274  88.967  11.501  1.00  0.00     0.143 C 
ATOM     12  C   UNL     1      36.810  89.050  11.514  1.00  0.00     0.143 C 
ATOM     13  N   UNL     1      38.072  89.789  11.698  1.00  0.00    -0.321 N 
ATOM     14  C   UNL     1      38.197  91.139  11.345  1.00  0.00     0.321 C 
ATOM     15  O   UNL     1      39.254  91.596  10.919  1.00  0.00    -0.248 OA
ATOM     16  H   UNL     1      36.441  91.505  12.272  1.00  0.00     0.171 HD
BRANCH   8  17
ATOM     17  C   UNL     1      37.998  86.150  10.872  1.00  0.00     0.141 A 
ATOM     18  C   UNL     1      33.364  85.054   9.213  1.00  0.00    -0.052 C 
ATOM     19  C   UNL     1      34.762  85.193   9.418  1.00  0.00     0.091 A 
ATOM     20  C   UNL     1      35.411  85.861  10.435  1.00  0.00     0.051 A 
ATOM     21  N   UNL     1      35.718  84.666   8.592  1.00  0.00    -0.333 N 
ATOM     22  C   UNL     1      36.816  85.722  10.227  1.00  0.00     0.063 A 
ATOM     23  C   UNL     1      36.963  84.990   9.057  1.00  0.00     0.143 A 
ATOM     24  N   UNL     1      38.108  84.647   8.455  1.00  0.00    -0.218 NA
ATOM     25  N   UNL     1      39.176  85.850  10.261  1.00  0.00    -0.219 NA
ATOM     26  C   UNL     1      39.167  85.128   9.122  1.00  0.00     0.226 A 
ATOM     27  C   UNL     1      32.183  84.937   9.038  1.00  0.00     0.011 C 
ATOM     28  H   UNL     1      35.549  84.133   7.752  1.00  0.00     0.169 HD
ENDBRANCH   8  17
ENDBRANCH   1   7
BRANCH   4  29
ATOM     29  O   UNL     1      36.277  97.258  10.287  1.00  0.00    -0.494 OA
BRANCH  29  30
ATOM     30  C   UNL     1      35.138  97.701   9.551  1.00  0.00     0.226 C 
ATOM     31  C   UNL     1      34.010  97.948  10.537  1.00  0.00     0.049 C 
ENDBRANCH  29  30
ENDBRANCH   4  29
TORSDOF 4
ENDMDL
