MODEL 1
REMARK VINA RESULT:      -9.2      0.000      0.000
REMARK SMILES C#CCOc1ccc(Nc2ccc3ncc(N4CCOCC4)nc3c2C#N)cc1OC
REMARK SMILES IDX 5 1 6 2 7 3 8 4 28 5 29 6 4 7 3 8 2 9 1 10 30 11 31 12 9 13
REMARK SMILES IDX 10 15 11 16 25 17 12 18 24 19 26 20 13 21 23 22 27 23 14 24
REMARK SMILES IDX 16 25 15 26 17 27 18 28 22 29 19 30 21 31 20 32
REMARK H PARENT 9 14
ROOT
ATOM      1  C   UNL     1      34.569  97.531   9.641  1.00  0.00     0.162 A 
ATOM      2  C   UNL     1      35.898  97.161   9.836  1.00  0.00     0.052 A 
ATOM      3  C   UNL     1      36.219  95.820  10.049  1.00  0.00     0.030 A 
ATOM      4  C   UNL     1      35.222  94.838  10.073  1.00  0.00     0.042 A 
ATOM      5  C   UNL     1      33.890  95.227   9.832  1.00  0.00     0.076 A 
ATOM      6  C   UNL     1      33.556  96.566   9.599  1.00  0.00     0.162 A 
ENDROOT
BRANCH   1   7
ATOM      7  O   UNL     1      34.306  98.858   9.416  1.00  0.00    -0.477 OA
BRANCH   7   8
ATOM      8  C   UNL     1      34.341  99.140   8.011  1.00  0.00     0.318 C 
ATOM      9  C   UNL     1      33.150  99.923   7.648  1.00  0.00    -0.065 C 
ATOM     10  C   UNL     1      32.199 100.597   7.350  1.00  0.00     0.007 C 
ENDBRANCH   7   8
ENDBRANCH   1   7
BRANCH   6  11
ATOM     11  O   UNL     1      32.286  97.020   9.356  1.00  0.00    -0.493 OA
ATOM     12  C   UNL     1      31.650  96.537   8.179  1.00  0.00     0.278 C 
ENDBRANCH   6  11
BRANCH   4  13
ATOM     13  N   UNL     1      35.495  93.469  10.273  1.00  0.00    -0.354 N 
ATOM     14  H   UNL     1      34.656  92.893  10.218  1.00  0.00     0.167 HD
BRANCH  13  15
ATOM     15  C   UNL     1      36.653  92.810  10.740  1.00  0.00     0.059 A 
ATOM     16  C   UNL     1      37.767  93.541  11.163  1.00  0.00     0.030 A 
ATOM     17  C   UNL     1      36.713  91.402  10.846  1.00  0.00     0.103 A 
ATOM     18  C   UNL     1      38.898  92.891  11.654  1.00  0.00     0.033 A 
ATOM     19  C   UNL     1      37.842  90.739  11.343  1.00  0.00     0.111 A 
ATOM     20  C   UNL     1      35.589  90.611  10.437  1.00  0.00     0.104 C 
ATOM     21  C   UNL     1      38.952  91.510  11.751  1.00  0.00     0.090 A 
ATOM     22  N   UNL     1      37.882  89.386  11.437  1.00  0.00    -0.226 NA
ATOM     23  N   UNL     1      34.651  90.031  10.072  1.00  0.00    -0.192 NA
ATOM     24  N   UNL     1      40.066  90.942  12.234  1.00  0.00    -0.251 NA
ATOM     25  C   UNL     1      38.990  88.788  11.919  1.00  0.00     0.148 A 
ATOM     26  C   UNL     1      40.059  89.588  12.316  1.00  0.00     0.158 A 
BRANCH  25  27
ATOM     27  N   UNL     1      39.046  87.389  12.029  1.00  0.00    -0.351 N 
ATOM     28  C   UNL     1      39.708  86.877  13.254  1.00  0.00     0.146 C 
ATOM     29  C   UNL     1      37.739  86.743  11.750  1.00  0.00     0.146 C 
ATOM     30  C   UNL     1      38.661  86.478  14.303  1.00  0.00     0.181 C 
ATOM     31  C   UNL     1      37.659  85.365  12.423  1.00  0.00     0.181 C 
ATOM     32  O   UNL     1      37.773  85.438  13.852  1.00  0.00    -0.378 OA
ENDBRANCH  25  27
ENDBRANCH  13  15
ENDBRANCH   4  13
TORSDOF 6
ENDMDL
MODEL 2
REMARK VINA RESULT:      -9.0      7.072     13.795
REMARK SMILES C#CCOc1ccc(Nc2ccc3ncc(N4CCOCC4)nc3c2C#N)cc1OC
REMARK SMILES IDX 5 1 6 2 7 3 8 4 28 5 29 6 4 7 3 8 2 9 1 10 30 11 31 12 9 13
REMARK SMILES IDX 10 15 11 16 25 17 12 18 24 19 26 20 13 21 23 22 27 23 14 24
REMARK SMILES IDX 16 25 15 26 17 27 18 28 22 29 19 30 21 31 20 32
REMARK H PARENT 9 14
ROOT
ATOM      1  C   UNL     1      33.941  97.535   9.126  1.00  0.00     0.162 A 
ATOM      2  C   UNL     1      32.809  97.463   9.934  1.00  0.00     0.052 A 
ATOM      3  C   UNL     1      32.031  98.602  10.139  1.00  0.00     0.030 A 
ATOM      4  C   UNL     1      32.376  99.823   9.546  1.00  0.00     0.042 A 
ATOM      5  C   UNL     1      33.500  99.865   8.699  1.00  0.00     0.076 A 
ATOM      6  C   UNL     1      34.278  98.725   8.470  1.00  0.00     0.162 A 
ENDROOT
BRANCH   1   7
ATOM      7  O   UNL     1      34.662  96.383   8.938  1.00  0.00    -0.477 OA
BRANCH   7   8
ATOM      8  C   UNL     1      34.355  95.434   9.967  1.00  0.00     0.318 C 
ATOM      9  C   UNL     1      35.487  94.506  10.118  1.00  0.00    -0.065 C 
ATOM     10  C   UNL     1      36.424  93.768  10.275  1.00  0.00     0.007 C 
ENDBRANCH   7   8
ENDBRANCH   1   7
BRANCH   6  11
ATOM     11  O   UNL     1      35.383  98.688   7.660  1.00  0.00    -0.493 OA
ATOM     12  C   UNL     1      35.387  99.571   6.545  1.00  0.00     0.278 C 
ENDBRANCH   6  11
BRANCH   4  13
ATOM     13  N   UNL     1      31.617 101.001   9.713  1.00  0.00    -0.354 N 
ATOM     14  H   UNL     1      31.754 101.662   8.950  1.00  0.00     0.167 HD
BRANCH  13  15
ATOM     15  C   UNL     1      30.901 101.496  10.824  1.00  0.00     0.059 A 
ATOM     16  C   UNL     1      31.569 101.877  11.991  1.00  0.00     0.030 A 
ATOM     17  C   UNL     1      29.499 101.672  10.784  1.00  0.00     0.103 A 
ATOM     18  C   UNL     1      30.864 102.396  13.076  1.00  0.00     0.033 A 
ATOM     19  C   UNL     1      28.782 102.197  11.866  1.00  0.00     0.111 A 
ATOM     20  C   UNL     1      28.771 101.308   9.602  1.00  0.00     0.104 C 
ATOM     21  C   UNL     1      29.490 102.562  13.032  1.00  0.00     0.090 A 
ATOM     22  N   UNL     1      27.436 102.359  11.809  1.00  0.00    -0.226 NA
ATOM     23  N   UNL     1      28.244 100.976   8.622  1.00  0.00    -0.192 NA
ATOM     24  N   UNL     1      28.867 103.068  14.105  1.00  0.00    -0.251 NA
ATOM     25  C   UNL     1      26.783 102.866  12.875  1.00  0.00     0.148 A 
ATOM     26  C   UNL     1      27.524 103.218  14.002  1.00  0.00     0.158 A 
BRANCH  25  27
ATOM     27  N   UNL     1      25.392 103.046  12.830  1.00  0.00    -0.351 N 
ATOM     28  C   UNL     1      24.924 104.424  13.118  1.00  0.00     0.146 C 
ATOM     29  C   UNL     1      24.779 102.455  11.615  1.00  0.00     0.146 C 
ATOM     30  C   UNL     1      24.619 105.170  11.812  1.00  0.00     0.181 C 
ATOM     31  C   UNL     1      23.443 103.139  11.291  1.00  0.00     0.181 C 
ATOM     32  O   UNL     1      23.589 104.542  11.025  1.00  0.00    -0.378 OA
ENDBRANCH  25  27
ENDBRANCH  13  15
ENDBRANCH   4  13
TORSDOF 6
ENDMDL
MODEL 3
REMARK VINA RESULT:      -8.9      1.539      2.188
REMARK SMILES C#CCOc1ccc(Nc2ccc3ncc(N4CCOCC4)nc3c2C#N)cc1OC
REMARK SMILES IDX 5 1 6 2 7 3 8 4 28 5 29 6 4 7 3 8 2 9 1 10 30 11 31 12 9 13
REMARK SMILES IDX 10 15 11 16 25 17 12 18 24 19 26 20 13 21 23 22 27 23 14 24
REMARK SMILES IDX 16 25 15 26 17 27 18 28 22 29 19 30 21 31 20 32
REMARK H PARENT 9 14
ROOT
ATOM      1  C   UNL     1      33.945  97.725   9.570  1.00  0.00     0.162 A 
ATOM      2  C   UNL     1      33.286  96.838  10.419  1.00  0.00     0.052 A 
ATOM      3  C   UNL     1      33.717  95.515  10.508  1.00  0.00     0.030 A 
ATOM      4  C   UNL     1      34.805  95.062   9.752  1.00  0.00     0.042 A 
ATOM      5  C   UNL     1      35.484  95.984   8.933  1.00  0.00     0.076 A 
ATOM      6  C   UNL     1      35.073  97.319   8.847  1.00  0.00     0.162 A 
ENDROOT
BRANCH   1   7
ATOM      7  O   UNL     1      33.496  99.020   9.532  1.00  0.00    -0.477 OA
BRANCH   7   8
ATOM      8  C   UNL     1      32.068  99.053   9.655  1.00  0.00     0.318 C 
ATOM      9  C   UNL     1      31.673 100.301  10.327  1.00  0.00    -0.065 C 
ATOM     10  C   UNL     1      31.339 101.336  10.840  1.00  0.00     0.007 C 
ENDBRANCH   7   8
ENDBRANCH   1   7
BRANCH   6  11
ATOM     11  O   UNL     1      35.682  98.272   8.075  1.00  0.00    -0.493 OA
ATOM     12  C   UNL     1      35.418  98.225   6.678  1.00  0.00     0.278 C 
ENDBRANCH   6  11
BRANCH   4  13
ATOM     13  N   UNL     1      35.288  93.738   9.815  1.00  0.00    -0.354 N 
ATOM     14  H   UNL     1      34.589  93.055   9.525  1.00  0.00     0.167 HD
BRANCH  13  15
ATOM     15  C   UNL     1      36.454  93.200  10.401  1.00  0.00     0.059 A 
ATOM     16  C   UNL     1      37.499  94.035  10.806  1.00  0.00     0.030 A 
ATOM     17  C   UNL     1      36.589  91.814  10.645  1.00  0.00     0.103 A 
ATOM     18  C   UNL     1      38.636  93.506  11.414  1.00  0.00     0.033 A 
ATOM     19  C   UNL     1      37.725  91.272  11.259  1.00  0.00     0.111 A 
ATOM     20  C   UNL     1      35.538  90.919  10.257  1.00  0.00     0.104 C 
ATOM     21  C   UNL     1      38.765  92.147  11.646  1.00  0.00     0.090 A 
ATOM     22  N   UNL     1      37.838  89.939  11.485  1.00  0.00    -0.226 NA
ATOM     23  N   UNL     1      34.657  90.250   9.904  1.00  0.00    -0.192 NA
ATOM     24  N   UNL     1      39.880  91.697  12.238  1.00  0.00    -0.251 NA
ATOM     25  C   UNL     1      38.951  89.460  12.078  1.00  0.00     0.148 A 
ATOM     26  C   UNL     1      39.947  90.360  12.449  1.00  0.00     0.158 A 
BRANCH  25  27
ATOM     27  N   UNL     1      39.081  88.084  12.325  1.00  0.00    -0.351 N 
ATOM     28  C   UNL     1      38.247  87.206  11.467  1.00  0.00     0.146 C 
ATOM     29  C   UNL     1      40.497  87.651  12.412  1.00  0.00     0.146 C 
ATOM     30  C   UNL     1      39.083  86.631  10.315  1.00  0.00     0.181 C 
ATOM     31  C   UNL     1      40.630  86.155  12.092  1.00  0.00     0.181 C 
ATOM     32  O   UNL     1      40.193  85.830  10.764  1.00  0.00    -0.378 OA
ENDBRANCH  25  27
ENDBRANCH  13  15
ENDBRANCH   4  13
TORSDOF 6
ENDMDL
MODEL 4
REMARK VINA RESULT:      -8.9     13.426     16.866
REMARK SMILES C#CCOc1ccc(Nc2ccc3ncc(N4CCOCC4)nc3c2C#N)cc1OC
REMARK SMILES IDX 5 1 6 2 7 3 8 4 28 5 29 6 4 7 3 8 2 9 1 10 30 11 31 12 9 13
REMARK SMILES IDX 10 15 11 16 25 17 12 18 24 19 26 20 13 21 23 22 27 23 14 24
REMARK SMILES IDX 16 25 15 26 17 27 18 28 22 29 19 30 21 31 20 32
REMARK H PARENT 9 14
ROOT
ATOM      1  C   UNL     1      21.966  96.281   5.270  1.00  0.00     0.162 A 
ATOM      2  C   UNL     1      22.311  97.085   4.186  1.00  0.00     0.052 A 
ATOM      3  C   UNL     1      22.241  98.473   4.304  1.00  0.00     0.030 A 
ATOM      4  C   UNL     1      21.824  99.072   5.499  1.00  0.00     0.042 A 
ATOM      5  C   UNL     1      21.521  98.243   6.596  1.00  0.00     0.076 A 
ATOM      6  C   UNL     1      21.605  96.850   6.497  1.00  0.00     0.162 A 
ENDROOT
BRANCH   1   7
ATOM      7  O   UNL     1      22.070  94.922   5.112  1.00  0.00    -0.477 OA
BRANCH   7   8
ATOM      8  C   UNL     1      21.745  94.554   3.766  1.00  0.00     0.318 C 
ATOM      9  C   UNL     1      22.478  93.329   3.412  1.00  0.00    -0.065 C 
ATOM     10  C   UNL     1      23.044  92.305   3.129  1.00  0.00     0.007 C 
ENDBRANCH   7   8
ENDBRANCH   1   7
BRANCH   6  11
ATOM     11  O   UNL     1      21.327  95.980   7.519  1.00  0.00    -0.493 OA
ATOM     12  C   UNL     1      22.211  96.003   8.633  1.00  0.00     0.278 C 
ENDBRANCH   6  11
BRANCH   4  13
ATOM     13  N   UNL     1      21.747 100.470   5.672  1.00  0.00    -0.354 N 
ATOM     14  H   UNL     1      21.518 100.957   4.807  1.00  0.00     0.167 HD
BRANCH  13  15
ATOM     15  C   UNL     1      22.138 101.296   6.749  1.00  0.00     0.059 A 
ATOM     16  C   UNL     1      21.181 101.943   7.535  1.00  0.00     0.030 A 
ATOM     17  C   UNL     1      23.497 101.459   7.102  1.00  0.00     0.103 A 
ATOM     18  C   UNL     1      21.567 102.733   8.618  1.00  0.00     0.033 A 
ATOM     19  C   UNL     1      23.895 102.245   8.190  1.00  0.00     0.111 A 
ATOM     20  C   UNL     1      24.515 100.804   6.332  1.00  0.00     0.104 C 
ATOM     21  C   UNL     1      22.900 102.892   8.956  1.00  0.00     0.090 A 
ATOM     22  N   UNL     1      25.205 102.391   8.514  1.00  0.00    -0.226 NA
ATOM     23  N   UNL     1      25.286 100.259   5.656  1.00  0.00    -0.192 NA
ATOM     24  N   UNL     1      23.210 103.661  10.009  1.00  0.00    -0.251 NA
ATOM     25  C   UNL     1      25.545 103.160   9.569  1.00  0.00     0.148 A 
ATOM     26  C   UNL     1      24.529 103.773  10.300  1.00  0.00     0.158 A 
BRANCH  25  27
ATOM     27  N   UNL     1      26.895 103.316   9.922  1.00  0.00    -0.351 N 
ATOM     28  C   UNL     1      27.151 103.498  11.372  1.00  0.00     0.146 C 
ATOM     29  C   UNL     1      27.770 102.298   9.290  1.00  0.00     0.146 C 
ATOM     30  C   UNL     1      27.594 102.173  12.009  1.00  0.00     0.181 C 
ATOM     31  C   UNL     1      29.059 102.108  10.104  1.00  0.00     0.181 C 
ATOM     32  O   UNL     1      28.809 101.647  11.440  1.00  0.00    -0.378 OA
ENDBRANCH  25  27
ENDBRANCH  13  15
ENDBRANCH   4  13
TORSDOF 6
ENDMDL
MODEL 5
REMARK VINA RESULT:      -8.3      1.386      2.781
REMARK SMILES C#CCOc1ccc(Nc2ccc3ncc(N4CCOCC4)nc3c2C#N)cc1OC
REMARK SMILES IDX 5 1 6 2 7 3 8 4 28 5 29 6 4 7 3 8 2 9 1 10 30 11 31 12 9 13
REMARK SMILES IDX 10 15 11 16 25 17 12 18 24 19 26 20 13 21 23 22 27 23 14 24
REMARK SMILES IDX 16 25 15 26 17 27 18 28 22 29 19 30 21 31 20 32
REMARK H PARENT 9 14
ROOT
ATOM      1  C   UNL     1      35.714  96.569  10.102  1.00  0.00     0.162 A 
ATOM      2  C   UNL     1      36.989  96.547  10.663  1.00  0.00     0.052 A 
ATOM      3  C   UNL     1      37.602  95.325  10.942  1.00  0.00     0.030 A 
ATOM      4  C   UNL     1      36.950  94.116  10.669  1.00  0.00     0.042 A 
ATOM      5  C   UNL     1      35.680  94.161  10.062  1.00  0.00     0.076 A 
ATOM      6  C   UNL     1      35.061  95.379   9.761  1.00  0.00     0.162 A 
ENDROOT
BRANCH   1   7
ATOM      7  O   UNL     1      35.162  97.795   9.828  1.00  0.00    -0.477 OA
BRANCH   7   8
ATOM      8  C   UNL     1      35.317  98.109   8.439  1.00  0.00     0.318 C 
ATOM      9  C   UNL     1      34.148  98.879   7.987  1.00  0.00    -0.065 C 
ATOM     10  C   UNL     1      33.215  99.542   7.619  1.00  0.00     0.007 C 
ENDBRANCH   7   8
ENDBRANCH   1   7
BRANCH   6  11
ATOM     11  O   UNL     1      33.830  95.501   9.172  1.00  0.00    -0.493 OA
ATOM     12  C   UNL     1      32.771  95.964  10.000  1.00  0.00     0.278 C 
ENDBRANCH   6  11
BRANCH   4  13
ATOM     13  N   UNL     1      37.530  92.855  10.921  1.00  0.00    -0.354 N 
ATOM     14  H   UNL     1      38.546  92.875  10.857  1.00  0.00     0.167 HD
BRANCH  13  15
ATOM     15  C   UNL     1      36.953  91.570  11.022  1.00  0.00     0.059 A 
ATOM     16  C   UNL     1      35.668  91.324  10.531  1.00  0.00     0.030 A 
ATOM     17  C   UNL     1      37.665  90.480  11.572  1.00  0.00     0.103 A 
ATOM     18  C   UNL     1      35.113  90.048  10.602  1.00  0.00     0.033 A 
ATOM     19  C   UNL     1      37.119  89.193  11.645  1.00  0.00     0.111 A 
ATOM     20  C   UNL     1      38.993  90.681  12.078  1.00  0.00     0.104 C 
ATOM     21  C   UNL     1      35.814  88.985  11.147  1.00  0.00     0.090 A 
ATOM     22  N   UNL     1      37.817  88.158  12.177  1.00  0.00    -0.226 NA
ATOM     23  N   UNL     1      40.055  90.918  12.483  1.00  0.00    -0.192 NA
ATOM     24  N   UNL     1      35.229  87.780  11.186  1.00  0.00    -0.251 NA
ATOM     25  C   UNL     1      37.252  86.935  12.229  1.00  0.00     0.148 A 
ATOM     26  C   UNL     1      35.965  86.775  11.720  1.00  0.00     0.158 A 
BRANCH  25  27
ATOM     27  N   UNL     1      37.963  85.852  12.770  1.00  0.00    -0.351 N 
ATOM     28  C   UNL     1      39.069  86.218  13.688  1.00  0.00     0.146 C 
ATOM     29  C   UNL     1      37.071  84.797  13.311  1.00  0.00     0.146 C 
ATOM     30  C   UNL     1      38.620  86.085  15.150  1.00  0.00     0.181 C 
ATOM     31  C   UNL     1      37.798  83.963  14.376  1.00  0.00     0.181 C 
ATOM     32  O   UNL     1      38.221  84.746  15.502  1.00  0.00    -0.378 OA
ENDBRANCH  25  27
ENDBRANCH  13  15
ENDBRANCH   4  13
TORSDOF 6
ENDMDL
MODEL 6
REMARK VINA RESULT:      -8.0      1.350      2.120
REMARK SMILES C#CCOc1ccc(Nc2ccc3ncc(N4CCOCC4)nc3c2C#N)cc1OC
REMARK SMILES IDX 5 1 6 2 7 3 8 4 28 5 29 6 4 7 3 8 2 9 1 10 30 11 31 12 9 13
REMARK SMILES IDX 10 15 11 16 25 17 12 18 24 19 26 20 13 21 23 22 27 23 14 24
REMARK SMILES IDX 16 25 15 26 17 27 18 28 22 29 19 30 21 31 20 32
REMARK H PARENT 9 14
ROOT
ATOM      1  C   UNL     1      35.065  97.030   9.822  1.00  0.00     0.162 A 
ATOM      2  C   UNL     1      34.096  96.130   9.383  1.00  0.00     0.052 A 
ATOM      3  C   UNL     1      34.338  94.759   9.462  1.00  0.00     0.030 A 
ATOM      4  C   UNL     1      35.547  94.272   9.974  1.00  0.00     0.042 A 
ATOM      5  C   UNL     1      36.496  95.197  10.451  1.00  0.00     0.076 A 
ATOM      6  C   UNL     1      36.258  96.574  10.395  1.00  0.00     0.162 A 
ENDROOT
BRANCH   1   7
ATOM      7  O   UNL     1      34.772  98.368   9.742  1.00  0.00    -0.477 OA
BRANCH   7   8
ATOM      8  C   UNL     1      33.478  98.557   9.156  1.00  0.00     0.318 C 
ATOM      9  C   UNL     1      32.927  99.843   9.614  1.00  0.00    -0.065 C 
ATOM     10  C   UNL     1      32.486 100.909   9.952  1.00  0.00     0.007 C 
ENDBRANCH   7   8
ENDBRANCH   1   7
BRANCH   6  11
ATOM     11  O   UNL     1      37.131  97.533  10.838  1.00  0.00    -0.493 OA
ATOM     12  C   UNL     1      37.417  97.539  12.232  1.00  0.00     0.278 C 
ENDBRANCH   6  11
BRANCH   4  13
ATOM     13  N   UNL     1      35.836  92.895  10.086  1.00  0.00    -0.354 N 
ATOM     14  H   UNL     1      35.042  92.310   9.832  1.00  0.00     0.167 HD
BRANCH  13  15
ATOM     15  C   UNL     1      36.924  92.219  10.680  1.00  0.00     0.059 A 
ATOM     16  C   UNL     1      38.127  92.885  10.930  1.00  0.00     0.030 A 
ATOM     17  C   UNL     1      36.823  90.870  11.090  1.00  0.00     0.103 A 
ATOM     18  C   UNL     1      39.189  92.225  11.546  1.00  0.00     0.033 A 
ATOM     19  C   UNL     1      37.881  90.199  11.715  1.00  0.00     0.111 A 
ATOM     20  C   UNL     1      35.603  90.149  10.867  1.00  0.00     0.104 C 
ATOM     21  C   UNL     1      39.086  90.902  11.941  1.00  0.00     0.090 A 
ATOM     22  N   UNL     1      37.767  88.903  12.100  1.00  0.00    -0.226 NA
ATOM     23  N   UNL     1      34.593  89.622  10.640  1.00  0.00    -0.192 NA
ATOM     24  N   UNL     1      40.140  90.321  12.532  1.00  0.00    -0.251 NA
ATOM     25  C   UNL     1      38.812  88.295  12.697  1.00  0.00     0.148 A 
ATOM     26  C   UNL     1      39.978  89.028  12.906  1.00  0.00     0.158 A 
BRANCH  25  27
ATOM     27  N   UNL     1      38.708  86.956  13.108  1.00  0.00    -0.351 N 
ATOM     28  C   UNL     1      39.821  86.469  13.959  1.00  0.00     0.146 C 
ATOM     29  C   UNL     1      37.365  86.628  13.646  1.00  0.00     0.146 C 
ATOM     30  C   UNL     1      39.416  86.495  15.440  1.00  0.00     0.181 C 
ATOM     31  C   UNL     1      37.438  85.422  14.594  1.00  0.00     0.181 C 
ATOM     32  O   UNL     1      38.279  85.660  15.732  1.00  0.00    -0.378 OA
ENDBRANCH  25  27
ENDBRANCH  13  15
ENDBRANCH   4  13
TORSDOF 6
ENDMDL
MODEL 7
REMARK VINA RESULT:      -7.8      5.487      7.700
REMARK SMILES C#CCOc1ccc(Nc2ccc3ncc(N4CCOCC4)nc3c2C#N)cc1OC
REMARK SMILES IDX 5 1 6 2 7 3 8 4 28 5 29 6 4 7 3 8 2 9 1 10 30 11 31 12 9 13
REMARK SMILES IDX 10 15 11 16 25 17 12 18 24 19 26 20 13 21 23 22 27 23 14 24
REMARK SMILES IDX 16 25 15 26 17 27 18 28 22 29 19 30 21 31 20 32
REMARK H PARENT 9 14
ROOT
ATOM      1  C   UNL     1      29.390  88.141  10.991  1.00  0.00     0.162 A 
ATOM      2  C   UNL     1      30.235  88.994  11.697  1.00  0.00     0.052 A 
ATOM      3  C   UNL     1      31.508  89.274  11.202  1.00  0.00     0.030 A 
ATOM      4  C   UNL     1      31.952  88.705  10.002  1.00  0.00     0.042 A 
ATOM      5  C   UNL     1      31.068  87.879   9.283  1.00  0.00     0.076 A 
ATOM      6  C   UNL     1      29.782  87.604   9.759  1.00  0.00     0.162 A 
ENDROOT
BRANCH   1   7
ATOM      7  O   UNL     1      28.141  87.912  11.509  1.00  0.00    -0.477 OA
BRANCH   7   8
ATOM      8  C   UNL     1      28.220  86.997  12.609  1.00  0.00     0.318 C 
ATOM      9  C   UNL     1      27.687  85.692  12.188  1.00  0.00    -0.065 C 
ATOM     10  C   UNL     1      27.290  84.611  11.840  1.00  0.00     0.007 C 
ENDBRANCH   7   8
ENDBRANCH   1   7
BRANCH   6  11
ATOM     11  O   UNL     1      28.866  86.812   9.116  1.00  0.00    -0.493 OA
ATOM     12  C   UNL     1      29.359  85.610   8.537  1.00  0.00     0.278 C 
ENDBRANCH   6  11
BRANCH   4  13
ATOM     13  N   UNL     1      33.226  88.964   9.453  1.00  0.00    -0.354 N 
ATOM     14  H   UNL     1      33.236  88.877   8.438  1.00  0.00     0.167 HD
BRANCH  13  15
ATOM     15  C   UNL     1      34.492  89.100  10.063  1.00  0.00     0.059 A 
ATOM     16  C   UNL     1      35.118  90.347  10.135  1.00  0.00     0.030 A 
ATOM     17  C   UNL     1      35.146  88.001  10.665  1.00  0.00     0.103 A 
ATOM     18  C   UNL     1      36.353  90.486  10.767  1.00  0.00     0.033 A 
ATOM     19  C   UNL     1      36.384  88.130  11.306  1.00  0.00     0.111 A 
ATOM     20  C   UNL     1      34.535  86.704  10.627  1.00  0.00     0.104 C 
ATOM     21  C   UNL     1      36.991  89.405  11.350  1.00  0.00     0.090 A 
ATOM     22  N   UNL     1      36.998  87.064  11.877  1.00  0.00    -0.226 NA
ATOM     23  N   UNL     1      33.993  85.680  10.545  1.00  0.00    -0.192 NA
ATOM     24  N   UNL     1      38.176  89.600  11.945  1.00  0.00    -0.251 NA
ATOM     25  C   UNL     1      38.192  87.232  12.483  1.00  0.00     0.148 A 
ATOM     26  C   UNL     1      38.750  88.508  12.508  1.00  0.00     0.158 A 
BRANCH  25  27
ATOM     27  N   UNL     1      38.837  86.140  13.085  1.00  0.00    -0.351 N 
ATOM     28  C   UNL     1      39.864  86.493  14.096  1.00  0.00     0.146 C 
ATOM     29  C   UNL     1      37.886  85.100  13.547  1.00  0.00     0.146 C 
ATOM     30  C   UNL     1      39.287  86.369  15.513  1.00  0.00     0.181 C 
ATOM     31  C   UNL     1      38.505  84.257  14.672  1.00  0.00     0.181 C 
ATOM     32  O   UNL     1      38.840  85.037  15.829  1.00  0.00    -0.378 OA
ENDBRANCH  25  27
ENDBRANCH  13  15
ENDBRANCH   4  13
TORSDOF 6
ENDMDL
MODEL 8
REMARK VINA RESULT:      -7.7      5.421      7.349
REMARK SMILES C#CCOc1ccc(Nc2ccc3ncc(N4CCOCC4)nc3c2C#N)cc1OC
REMARK SMILES IDX 5 1 6 2 7 3 8 4 28 5 29 6 4 7 3 8 2 9 1 10 30 11 31 12 9 13
REMARK SMILES IDX 10 15 11 16 25 17 12 18 24 19 26 20 13 21 23 22 27 23 14 24
REMARK SMILES IDX 16 25 15 26 17 27 18 28 22 29 19 30 21 31 20 32
REMARK H PARENT 9 14
ROOT
ATOM      1  C   UNL     1      31.593  86.946   8.380  1.00  0.00     0.162 A 
ATOM      2  C   UNL     1      32.504  86.163   9.085  1.00  0.00     0.052 A 
ATOM      3  C   UNL     1      33.308  86.747  10.064  1.00  0.00     0.030 A 
ATOM      4  C   UNL     1      33.215  88.116  10.345  1.00  0.00     0.042 A 
ATOM      5  C   UNL     1      32.258  88.881   9.651  1.00  0.00     0.076 A 
ATOM      6  C   UNL     1      31.433  88.304   8.680  1.00  0.00     0.162 A 
ENDROOT
BRANCH   1   7
ATOM      7  O   UNL     1      30.811  86.321   7.441  1.00  0.00    -0.477 OA
BRANCH   7   8
ATOM      8  C   UNL     1      30.061  85.261   8.047  1.00  0.00     0.318 C 
ATOM      9  C   UNL     1      28.803  85.806   8.580  1.00  0.00    -0.065 C 
ATOM     10  C   UNL     1      27.754  86.235   8.983  1.00  0.00     0.007 C 
ENDBRANCH   7   8
ENDBRANCH   1   7
BRANCH   6  11
ATOM     11  O   UNL     1      30.481  88.982   7.965  1.00  0.00    -0.493 OA
ATOM     12  C   UNL     1      29.501  89.687   8.717  1.00  0.00     0.278 C 
ENDBRANCH   6  11
BRANCH   4  13
ATOM     13  N   UNL     1      33.996  88.753  11.332  1.00  0.00    -0.354 N 
ATOM     14  H   UNL     1      33.429  89.270  12.002  1.00  0.00     0.167 HD
BRANCH  13  15
ATOM     15  C   UNL     1      35.388  88.973  11.417  1.00  0.00     0.059 A 
ATOM     16  C   UNL     1      35.963  90.124  10.870  1.00  0.00     0.030 A 
ATOM     17  C   UNL     1      36.240  88.073  12.096  1.00  0.00     0.103 A 
ATOM     18  C   UNL     1      37.333  90.356  10.983  1.00  0.00     0.033 A 
ATOM     19  C   UNL     1      37.617  88.298  12.219  1.00  0.00     0.111 A 
ATOM     20  C   UNL     1      35.694  86.884  12.684  1.00  0.00     0.104 C 
ATOM     21  C   UNL     1      38.163  89.468  11.645  1.00  0.00     0.090 A 
ATOM     22  N   UNL     1      38.420  87.422  12.874  1.00  0.00    -0.226 NA
ATOM     23  N   UNL     1      35.189  85.934  13.122  1.00  0.00    -0.192 NA
ATOM     24  N   UNL     1      39.472  89.746  11.724  1.00  0.00    -0.251 NA
ATOM     25  C   UNL     1      39.741  87.678  12.967  1.00  0.00     0.148 A 
ATOM     26  C   UNL     1      40.235  88.846  12.392  1.00  0.00     0.158 A 
BRANCH  25  27
ATOM     27  N   UNL     1      40.585  86.785  13.647  1.00  0.00    -0.351 N 
ATOM     28  C   UNL     1      41.350  87.373  14.775  1.00  0.00     0.146 C 
ATOM     29  C   UNL     1      39.908  85.511  13.993  1.00  0.00     0.146 C 
ATOM     30  C   UNL     1      40.665  87.054  16.111  1.00  0.00     0.181 C 
ATOM     31  C   UNL     1      40.597  84.835  15.187  1.00  0.00     0.181 C 
ATOM     32  O   UNL     1      40.566  85.641  16.375  1.00  0.00    -0.378 OA
ENDBRANCH  25  27
ENDBRANCH  13  15
ENDBRANCH   4  13
TORSDOF 6
ENDMDL
MODEL 9
REMARK VINA RESULT:      -7.3      2.918      4.325
REMARK SMILES C#CCOc1ccc(Nc2ccc3ncc(N4CCOCC4)nc3c2C#N)cc1OC
REMARK SMILES IDX 5 1 6 2 7 3 8 4 28 5 29 6 4 7 3 8 2 9 1 10 30 11 31 12 9 13
REMARK SMILES IDX 10 15 11 16 25 17 12 18 24 19 26 20 13 21 23 22 27 23 14 24
REMARK SMILES IDX 16 25 15 26 17 27 18 28 22 29 19 30 21 31 20 32
REMARK H PARENT 9 14
ROOT
ATOM      1  C   UNL     1      36.492  95.058  10.203  1.00  0.00     0.162 A 
ATOM      2  C   UNL     1      35.699  93.988   9.798  1.00  0.00     0.052 A 
ATOM      3  C   UNL     1      35.880  92.732  10.378  1.00  0.00     0.030 A 
ATOM      4  C   UNL     1      36.855  92.531  11.363  1.00  0.00     0.042 A 
ATOM      5  C   UNL     1      37.617  93.636  11.789  1.00  0.00     0.076 A 
ATOM      6  C   UNL     1      37.433  94.904  11.229  1.00  0.00     0.162 A 
ENDROOT
BRANCH   1   7
ATOM      7  O   UNL     1      36.262  96.277   9.617  1.00  0.00    -0.477 OA
BRANCH   7   8
ATOM      8  C   UNL     1      34.863  96.443   9.352  1.00  0.00     0.318 C 
ATOM      9  C   UNL     1      34.687  97.508   8.352  1.00  0.00    -0.065 C 
ATOM     10  C   UNL     1      34.537  98.351   7.507  1.00  0.00     0.007 C 
ENDBRANCH   7   8
ENDBRANCH   1   7
BRANCH   6  11
ATOM     11  O   UNL     1      38.134  96.024  11.591  1.00  0.00    -0.493 OA
ATOM     12  C   UNL     1      37.371  97.193  11.866  1.00  0.00     0.278 C 
ENDBRANCH   6  11
BRANCH   4  13
ATOM     13  N   UNL     1      37.071  91.285  11.989  1.00  0.00    -0.354 N 
ATOM     14  H   UNL     1      36.869  91.312  12.987  1.00  0.00     0.167 HD
BRANCH  13  15
ATOM     15  C   UNL     1      37.708  90.112  11.529  1.00  0.00     0.059 A 
ATOM     16  C   UNL     1      39.088  89.948  11.672  1.00  0.00     0.030 A 
ATOM     17  C   UNL     1      36.976  89.046  10.959  1.00  0.00     0.103 A 
ATOM     18  C   UNL     1      39.712  88.775  11.247  1.00  0.00     0.033 A 
ATOM     19  C   UNL     1      37.591  87.862  10.533  1.00  0.00     0.111 A 
ATOM     20  C   UNL     1      35.554  89.164  10.804  1.00  0.00     0.104 C 
ATOM     21  C   UNL     1      38.989  87.737  10.685  1.00  0.00     0.090 A 
ATOM     22  N   UNL     1      36.872  86.850   9.987  1.00  0.00    -0.226 NA
ATOM     23  N   UNL     1      34.411  89.333  10.692  1.00  0.00    -0.192 NA
ATOM     24  N   UNL     1      39.644  86.632  10.298  1.00  0.00    -0.251 NA
ATOM     25  C   UNL     1      37.505  85.727   9.589  1.00  0.00     0.148 A 
ATOM     26  C   UNL     1      38.885  85.644   9.763  1.00  0.00     0.158 A 
BRANCH  25  27
ATOM     27  N   UNL     1      36.775  84.667   9.028  1.00  0.00    -0.351 N 
ATOM     28  C   UNL     1      35.541  84.292   9.761  1.00  0.00     0.146 C 
ATOM     29  C   UNL     1      36.568  84.827   7.567  1.00  0.00     0.146 C 
ATOM     30  C   UNL     1      34.308  84.914   9.092  1.00  0.00     0.181 C 
ATOM     31  C   UNL     1      35.335  84.039   7.102  1.00  0.00     0.181 C 
ATOM     32  O   UNL     1      34.123  84.483   7.730  1.00  0.00    -0.378 OA
ENDBRANCH  25  27
ENDBRANCH  13  15
ENDBRANCH   4  13
TORSDOF 6
ENDMDL
