MODEL 1
REMARK VINA RESULT:     -10.6      0.000      0.000
REMARK SMILES CC(=O)NCC(=O)N1[C@@H]2CC[C@H]1c1ccc(Nc3ncc(C(F)(F)F)c(NC4CCC4)n3)cc12
REMARK SMILES IDX 8 1 12 2 11 3 10 4 9 5 34 6 33 7 16 8 15 9 14 10 13 11 6 12
REMARK SMILES IDX 7 13 5 14 4 15 2 16 3 17 1 18 17 20 18 22 19 23 32 24 20 25
REMARK SMILES IDX 26 26 21 27 27 28 28 30 29 31 31 32 30 33 22 34 23 35 24 36
REMARK SMILES IDX 25 37
REMARK H PARENT 4 19 17 21 27 29
ROOT
ATOM      1  N   UNL     1      33.964  97.123   8.764  1.00  0.00    -0.327 N 
ATOM      2  C   UNL     1      33.026  97.553   7.731  1.00  0.00     0.116 C 
ATOM      3  C   UNL     1      31.948  96.462   7.910  1.00  0.00     0.032 C 
ATOM      4  C   UNL     1      32.000  96.179   9.452  1.00  0.00     0.032 C 
ATOM      5  C   UNL     1      33.099  97.148   9.935  1.00  0.00     0.116 C 
ATOM      6  C   UNL     1      32.534  98.548   9.786  1.00  0.00    -0.018 A 
ATOM      7  C   UNL     1      32.093  99.477  10.705  1.00  0.00     0.032 A 
ATOM      8  C   UNL     1      31.597 100.708  10.234  1.00  0.00     0.041 A 
ATOM      9  C   UNL     1      31.554 100.934   8.837  1.00  0.00     0.026 A 
ATOM     10  C   UNL     1      31.999  99.985   7.904  1.00  0.00     0.008 A 
ATOM     11  C   UNL     1      32.489  98.801   8.398  1.00  0.00    -0.020 A 
ENDROOT
BRANCH   1  12
ATOM     12  C   UNL     1      35.311  97.385   8.836  1.00  0.00     0.242 C 
ATOM     13  O   UNL     1      35.919  97.970   7.936  1.00  0.00    -0.273 OA
BRANCH  12  14
ATOM     14  C   UNL     1      36.016  96.936  10.115  1.00  0.00     0.216 C 
BRANCH  14  15
ATOM     15  N   UNL     1      36.142  95.493  10.133  1.00  0.00    -0.347 N 
ATOM     16  C   UNL     1      37.059  94.866  10.934  1.00  0.00     0.217 C 
ATOM     17  O   UNL     1      37.846  95.472  11.654  1.00  0.00    -0.275 OA
ATOM     18  C   UNL     1      37.034  93.364  10.855  1.00  0.00     0.114 C 
ATOM     19  H   UNL     1      35.469  94.968   9.582  1.00  0.00     0.164 HD
ENDBRANCH  14  15
ENDBRANCH  12  14
ENDBRANCH   1  12
BRANCH   8  20
ATOM     20  N   UNL     1      31.139 101.636  11.179  1.00  0.00    -0.324 N 
ATOM     21  H   UNL     1      31.841 102.107  11.731  1.00  0.00     0.170 HD
BRANCH  20  22
ATOM     22  C   UNL     1      29.892 102.165  11.496  1.00  0.00     0.229 A 
ATOM     23  N   UNL     1      29.845 102.855  12.642  1.00  0.00    -0.221 NA
ATOM     24  N   UNL     1      28.819 101.987  10.715  1.00  0.00    -0.195 NA
ATOM     25  C   UNL     1      28.659 103.384  12.989  1.00  0.00     0.132 A 
ATOM     26  C   UNL     1      27.636 102.509  11.090  1.00  0.00     0.144 A 
ATOM     27  C   UNL     1      27.508 103.239  12.251  1.00  0.00     0.116 A 
BRANCH  26  28
ATOM     28  N   UNL     1      26.532 102.343  10.222  1.00  0.00    -0.367 N 
ATOM     29  H   UNL     1      26.074 101.449  10.395  1.00  0.00     0.162 HD
BRANCH  28  30
ATOM     30  C   UNL     1      26.613 102.648   8.815  1.00  0.00     0.080 C 
ATOM     31  C   UNL     1      26.941 104.135   8.558  1.00  0.00     0.025 C 
ATOM     32  C   UNL     1      25.237 102.900   8.158  1.00  0.00     0.025 C 
ATOM     33  C   UNL     1      25.429 104.404   8.437  1.00  0.00     0.004 C 
ENDBRANCH  28  30
ENDBRANCH  26  28
BRANCH  27  34
ATOM     34  C   UNL     1      26.241 103.876  12.682  1.00  0.00     0.421 C 
ATOM     35  F   UNL     1      25.601 104.533  11.677  1.00  0.00    -0.166 F 
ATOM     36  F   UNL     1      26.420 104.802  13.667  1.00  0.00    -0.166 F 
ATOM     37  F   UNL     1      25.338 102.987  13.189  1.00  0.00    -0.166 F 
ENDBRANCH  27  34
ENDBRANCH  20  22
ENDBRANCH   8  20
TORSDOF 8
ENDMDL
MODEL 2
REMARK VINA RESULT:      -9.8      1.635      2.218
REMARK SMILES CC(=O)NCC(=O)N1[C@@H]2CC[C@H]1c1ccc(Nc3ncc(C(F)(F)F)c(NC4CCC4)n3)cc12
REMARK SMILES IDX 8 1 12 2 11 3 10 4 9 5 34 6 33 7 16 8 15 9 14 10 13 11 6 12
REMARK SMILES IDX 7 13 5 14 4 15 2 16 3 17 1 18 17 20 18 22 19 23 32 24 20 25
REMARK SMILES IDX 26 26 21 27 27 28 28 30 29 31 31 32 30 33 22 34 23 35 24 36
REMARK SMILES IDX 25 37
REMARK H PARENT 4 19 17 21 27 29
ROOT
ATOM      1  N   UNL     1      34.351  97.041   8.766  1.00  0.00    -0.327 N 
ATOM      2  C   UNL     1      34.980  98.357   8.850  1.00  0.00     0.116 C 
ATOM      3  C   UNL     1      35.326  98.558   7.359  1.00  0.00     0.032 C 
ATOM      4  C   UNL     1      34.142  97.831   6.631  1.00  0.00     0.032 C 
ATOM      5  C   UNL     1      33.288  97.317   7.809  1.00  0.00     0.116 C 
ATOM      6  C   UNL     1      32.684  98.543   8.468  1.00  0.00    -0.018 A 
ATOM      7  C   UNL     1      31.402  99.051   8.490  1.00  0.00     0.032 A 
ATOM      8  C   UNL     1      31.163 100.247   9.195  1.00  0.00     0.041 A 
ATOM      9  C   UNL     1      32.252 100.887   9.836  1.00  0.00     0.026 A 
ATOM     10  C   UNL     1      33.556 100.370   9.808  1.00  0.00     0.008 A 
ATOM     11  C   UNL     1      33.750  99.196   9.123  1.00  0.00    -0.020 A 
ENDROOT
BRANCH   1  12
ATOM     12  C   UNL     1      34.220  96.109   9.766  1.00  0.00     0.242 C 
ATOM     13  O   UNL     1      33.122  95.779  10.222  1.00  0.00    -0.273 OA
BRANCH  12  14
ATOM     14  C   UNL     1      35.515  95.473  10.267  1.00  0.00     0.216 C 
BRANCH  14  15
ATOM     15  N   UNL     1      35.438  94.030  10.151  1.00  0.00    -0.347 N 
ATOM     16  C   UNL     1      36.386  93.217  10.710  1.00  0.00     0.217 C 
ATOM     17  O   UNL     1      37.367  93.645  11.310  1.00  0.00    -0.275 OA
ATOM     18  C   UNL     1      36.137  91.745  10.524  1.00  0.00     0.114 C 
ATOM     19  H   UNL     1      34.611  93.651   9.700  1.00  0.00     0.164 HD
ENDBRANCH  14  15
ENDBRANCH  12  14
ENDBRANCH   1  12
BRANCH   8  20
ATOM     20  N   UNL     1      29.858 100.759   9.196  1.00  0.00    -0.324 N 
ATOM     21  H   UNL     1      29.239 100.425   8.472  1.00  0.00     0.170 HD
BRANCH  20  22
ATOM     22  C   UNL     1      29.141 101.588  10.053  1.00  0.00     0.229 A 
ATOM     23  N   UNL     1      29.471 101.483  11.347  1.00  0.00    -0.221 NA
ATOM     24  N   UNL     1      28.187 102.419   9.616  1.00  0.00    -0.195 NA
ATOM     25  C   UNL     1      28.803 102.265  12.214  1.00  0.00     0.132 A 
ATOM     26  C   UNL     1      27.518 103.180  10.502  1.00  0.00     0.144 A 
ATOM     27  C   UNL     1      27.804 103.136  11.848  1.00  0.00     0.116 A 
BRANCH  26  28
ATOM     28  N   UNL     1      26.548 104.080  10.004  1.00  0.00    -0.367 N 
ATOM     29  H   UNL     1      26.450 104.880  10.630  1.00  0.00     0.162 HD
BRANCH  28  30
ATOM     30  C   UNL     1      25.276 103.630   9.496  1.00  0.00     0.080 C 
ATOM     31  C   UNL     1      24.125 104.591   9.870  1.00  0.00     0.025 C 
ATOM     32  C   UNL     1      24.597 102.566  10.387  1.00  0.00     0.025 C 
ATOM     33  C   UNL     1      23.845 103.706  11.101  1.00  0.00     0.004 C 
ENDBRANCH  28  30
ENDBRANCH  26  28
BRANCH  27  34
ATOM     34  C   UNL     1      27.131 103.989  12.856  1.00  0.00     0.421 C 
ATOM     35  F   UNL     1      27.961 104.401  13.851  1.00  0.00    -0.166 F 
ATOM     36  F   UNL     1      26.096 103.357  13.482  1.00  0.00    -0.166 F 
ATOM     37  F   UNL     1      26.586 105.121  12.323  1.00  0.00    -0.166 F 
ENDBRANCH  27  34
ENDBRANCH  20  22
ENDBRANCH   8  20
TORSDOF 8
ENDMDL
MODEL 3
REMARK VINA RESULT:      -9.2      1.748      2.891
REMARK SMILES CC(=O)NCC(=O)N1[C@@H]2CC[C@H]1c1ccc(Nc3ncc(C(F)(F)F)c(NC4CCC4)n3)cc12
REMARK SMILES IDX 8 1 12 2 11 3 10 4 9 5 34 6 33 7 16 8 15 9 14 10 13 11 6 12
REMARK SMILES IDX 7 13 5 14 4 15 2 16 3 17 1 18 17 20 18 22 19 23 32 24 20 25
REMARK SMILES IDX 26 26 21 27 27 28 28 30 29 31 31 32 30 33 22 34 23 35 24 36
REMARK SMILES IDX 25 37
REMARK H PARENT 4 19 17 21 27 29
ROOT
ATOM      1  N   UNL     1      33.819  97.377   8.946  1.00  0.00    -0.327 N 
ATOM      2  C   UNL     1      34.389  98.646   8.502  1.00  0.00     0.116 C 
ATOM      3  C   UNL     1      33.907  98.630   7.035  1.00  0.00     0.032 C 
ATOM      4  C   UNL     1      32.523  97.898   7.136  1.00  0.00     0.032 C 
ATOM      5  C   UNL     1      32.411  97.599   8.645  1.00  0.00     0.116 C 
ATOM      6  C   UNL     1      32.227  98.937   9.336  1.00  0.00    -0.018 A 
ATOM      7  C   UNL     1      31.139  99.531   9.942  1.00  0.00     0.032 A 
ATOM      8  C   UNL     1      31.291 100.820  10.487  1.00  0.00     0.041 A 
ATOM      9  C   UNL     1      32.549 101.462  10.374  1.00  0.00     0.026 A 
ATOM     10  C   UNL     1      33.652 100.857   9.753  1.00  0.00     0.008 A 
ATOM     11  C   UNL     1      33.473  99.595   9.245  1.00  0.00    -0.020 A 
ENDROOT
BRANCH   1  12
ATOM     12  C   UNL     1      34.234  96.591   9.993  1.00  0.00     0.242 C 
ATOM     13  O   UNL     1      33.465  95.847  10.607  1.00  0.00    -0.273 OA
BRANCH  12  14
ATOM     14  C   UNL     1      35.720  96.666  10.343  1.00  0.00     0.216 C 
BRANCH  14  15
ATOM     15  N   UNL     1      36.275  95.331  10.444  1.00  0.00    -0.347 N 
ATOM     16  C   UNL     1      37.399  95.079  11.182  1.00  0.00     0.217 C 
ATOM     17  O   UNL     1      38.024  95.954  11.773  1.00  0.00    -0.275 OA
ATOM     18  C   UNL     1      37.821  93.635  11.207  1.00  0.00     0.114 C 
ATOM     19  H   UNL     1      35.748  94.582  10.003  1.00  0.00     0.164 HD
ENDBRANCH  14  15
ENDBRANCH  12  14
ENDBRANCH   1  12
BRANCH   8  20
ATOM     20  N   UNL     1      30.173 101.416  11.086  1.00  0.00    -0.324 N 
ATOM     21  H   UNL     1      30.196 101.519  12.090  1.00  0.00     0.170 HD
BRANCH  20  22
ATOM     22  C   UNL     1      29.017 102.019  10.600  1.00  0.00     0.229 A 
ATOM     23  N   UNL     1      28.556 101.511   9.450  1.00  0.00    -0.221 NA
ATOM     24  N   UNL     1      28.418 103.036  11.233  1.00  0.00    -0.195 NA
ATOM     25  C   UNL     1      27.440 102.063   8.941  1.00  0.00     0.132 A 
ATOM     26  C   UNL     1      27.312 103.587  10.697  1.00  0.00     0.144 A 
ATOM     27  C   UNL     1      26.772 103.115   9.521  1.00  0.00     0.116 A 
BRANCH  26  28
ATOM     28  N   UNL     1      26.678 104.628  11.411  1.00  0.00    -0.367 N 
ATOM     29  H   UNL     1      27.103 105.527  11.184  1.00  0.00     0.162 HD
BRANCH  28  30
ATOM     30  C   UNL     1      26.368 104.515  12.815  1.00  0.00     0.080 C 
ATOM     31  C   UNL     1      25.644 103.191  13.148  1.00  0.00     0.025 C 
ATOM     32  C   UNL     1      25.074 105.255  13.223  1.00  0.00     0.025 C 
ATOM     33  C   UNL     1      24.304 103.938  13.004  1.00  0.00     0.004 C 
ENDBRANCH  28  30
ENDBRANCH  26  28
BRANCH  27  34
ATOM     34  C   UNL     1      25.530 103.653   8.918  1.00  0.00     0.421 C 
ATOM     35  F   UNL     1      25.712 104.843   8.284  1.00  0.00    -0.166 F 
ATOM     36  F   UNL     1      24.546 103.875   9.836  1.00  0.00    -0.166 F 
ATOM     37  F   UNL     1      24.973 102.814   7.996  1.00  0.00    -0.166 F 
ENDBRANCH  27  34
ENDBRANCH  20  22
ENDBRANCH   8  20
TORSDOF 8
ENDMDL
MODEL 4
REMARK VINA RESULT:      -8.6      5.258      9.083
REMARK SMILES CC(=O)NCC(=O)N1[C@@H]2CC[C@H]1c1ccc(Nc3ncc(C(F)(F)F)c(NC4CCC4)n3)cc12
REMARK SMILES IDX 8 1 12 2 11 3 10 4 9 5 34 6 33 7 16 8 15 9 14 10 13 11 6 12
REMARK SMILES IDX 7 13 5 14 4 15 2 16 3 17 1 18 17 20 18 22 19 23 32 24 20 25
REMARK SMILES IDX 26 26 21 27 27 28 28 30 29 31 31 32 30 33 22 34 23 35 24 36
REMARK SMILES IDX 25 37
REMARK H PARENT 4 19 17 21 27 29
ROOT
ATOM      1  N   UNL     1      27.310 103.435  12.482  1.00  0.00    -0.327 N 
ATOM      2  C   UNL     1      25.991 103.573  13.094  1.00  0.00     0.116 C 
ATOM      3  C   UNL     1      25.947 105.109  13.236  1.00  0.00     0.032 C 
ATOM      4  C   UNL     1      26.751 105.593  11.979  1.00  0.00     0.032 C 
ATOM      5  C   UNL     1      27.140 104.265  11.297  1.00  0.00     0.116 C 
ATOM      6  C   UNL     1      25.854 103.662  10.764  1.00  0.00    -0.018 A 
ATOM      7  C   UNL     1      25.351 103.523   9.487  1.00  0.00     0.032 A 
ATOM      8  C   UNL     1      24.088 102.920   9.323  1.00  0.00     0.041 A 
ATOM      9  C   UNL     1      23.380 102.500  10.475  1.00  0.00     0.026 A 
ATOM     10  C   UNL     1      23.893 102.648  11.773  1.00  0.00     0.008 A 
ATOM     11  C   UNL     1      25.132 103.227  11.896  1.00  0.00    -0.020 A 
ENDROOT
BRANCH   1  12
ATOM     12  C   UNL     1      28.133 102.335  12.500  1.00  0.00     0.242 C 
ATOM     13  O   UNL     1      28.376 101.708  13.534  1.00  0.00    -0.273 OA
BRANCH  12  14
ATOM     14  C   UNL     1      28.712 101.906  11.152  1.00  0.00     0.216 C 
BRANCH  14  15
ATOM     15  N   UNL     1      30.160 101.896  11.215  1.00  0.00    -0.347 N 
ATOM     16  C   UNL     1      30.902 101.032  10.455  1.00  0.00     0.217 C 
ATOM     17  O   UNL     1      30.402 100.198   9.707  1.00  0.00    -0.275 OA
ATOM     18  C   UNL     1      32.391 101.178  10.616  1.00  0.00     0.114 C 
ATOM     19  H   UNL     1      30.598 102.610  11.790  1.00  0.00     0.164 HD
ENDBRANCH  14  15
ENDBRANCH  12  14
ENDBRANCH   1  12
BRANCH   8  20
ATOM     20  N   UNL     1      23.583 102.799   8.021  1.00  0.00    -0.324 N 
ATOM     21  H   UNL     1      22.953 103.523   7.709  1.00  0.00     0.170 HD
BRANCH  20  22
ATOM     22  C   UNL     1      23.825 101.928   6.963  1.00  0.00     0.229 A 
ATOM     23  N   UNL     1      24.468 102.470   5.921  1.00  0.00    -0.221 NA
ATOM     24  N   UNL     1      23.435 100.647   6.986  1.00  0.00    -0.195 NA
ATOM     25  C   UNL     1      24.723 101.666   4.874  1.00  0.00     0.132 A 
ATOM     26  C   UNL     1      23.684  99.863   5.919  1.00  0.00     0.144 A 
ATOM     27  C   UNL     1      24.348 100.345   4.812  1.00  0.00     0.116 A 
BRANCH  26  28
ATOM     28  N   UNL     1      23.301  98.505   5.991  1.00  0.00    -0.367 N 
ATOM     29  H   UNL     1      23.723  97.975   5.229  1.00  0.00     0.162 HD
BRANCH  28  30
ATOM     30  C   UNL     1      21.936  98.107   6.237  1.00  0.00     0.080 C 
ATOM     31  C   UNL     1      21.657  97.878   7.738  1.00  0.00     0.025 C 
ATOM     32  C   UNL     1      21.686  96.597   6.021  1.00  0.00     0.025 C 
ATOM     33  C   UNL     1      21.960  96.382   7.523  1.00  0.00     0.004 C 
ENDBRANCH  28  30
ENDBRANCH  26  28
BRANCH  27  34
ATOM     34  C   UNL     1      24.690  99.510   3.636  1.00  0.00     0.421 C 
ATOM     35  F   UNL     1      25.416 100.175   2.699  1.00  0.00    -0.166 F 
ATOM     36  F   UNL     1      23.590  99.039   2.981  1.00  0.00    -0.166 F 
ATOM     37  F   UNL     1      25.414  98.399   3.960  1.00  0.00    -0.166 F 
ENDBRANCH  27  34
ENDBRANCH  20  22
ENDBRANCH   8  20
TORSDOF 8
ENDMDL
MODEL 5
REMARK VINA RESULT:      -8.6     11.304     14.531
REMARK SMILES CC(=O)NCC(=O)N1[C@@H]2CC[C@H]1c1ccc(Nc3ncc(C(F)(F)F)c(NC4CCC4)n3)cc12
REMARK SMILES IDX 8 1 12 2 11 3 10 4 9 5 34 6 33 7 16 8 15 9 14 10 13 11 6 12
REMARK SMILES IDX 7 13 5 14 4 15 2 16 3 17 1 18 17 20 18 22 19 23 32 24 20 25
REMARK SMILES IDX 26 26 21 27 27 28 28 30 29 31 31 32 30 33 22 34 23 35 24 36
REMARK SMILES IDX 25 37
REMARK H PARENT 4 19 17 21 27 29
ROOT
ATOM      1  N   UNL     1      29.060  87.516   9.282  1.00  0.00    -0.327 N 
ATOM      2  C   UNL     1      29.936  87.202   8.157  1.00  0.00     0.116 C 
ATOM      3  C   UNL     1      29.979  88.590   7.485  1.00  0.00     0.032 C 
ATOM      4  C   UNL     1      29.890  89.567   8.709  1.00  0.00     0.032 C 
ATOM      5  C   UNL     1      29.809  88.598   9.906  1.00  0.00     0.116 C 
ATOM      6  C   UNL     1      31.165  87.925  10.007  1.00  0.00    -0.018 A 
ATOM      7  C   UNL     1      32.206  88.057  10.901  1.00  0.00     0.032 A 
ATOM      8  C   UNL     1      33.367  87.283  10.704  1.00  0.00     0.041 A 
ATOM      9  C   UNL     1      33.424  86.416   9.586  1.00  0.00     0.026 A 
ATOM     10  C   UNL     1      32.364  86.287   8.675  1.00  0.00     0.008 A 
ATOM     11  C   UNL     1      31.243  87.046   8.904  1.00  0.00    -0.020 A 
ENDROOT
BRANCH   1  12
ATOM     12  C   UNL     1      28.278  86.648  10.004  1.00  0.00     0.242 C 
ATOM     13  O   UNL     1      27.794  85.627   9.510  1.00  0.00    -0.273 OA
BRANCH  12  14
ATOM     14  C   UNL     1      28.060  87.003  11.475  1.00  0.00     0.216 C 
BRANCH  14  15
ATOM     15  N   UNL     1      27.086  86.106  12.063  1.00  0.00    -0.347 N 
ATOM     16  C   UNL     1      27.435  85.215  13.043  1.00  0.00     0.217 C 
ATOM     17  O   UNL     1      28.582  85.093  13.460  1.00  0.00    -0.275 OA
ATOM     18  C   UNL     1      26.296  84.383  13.567  1.00  0.00     0.114 C 
ATOM     19  H   UNL     1      26.120  86.221  11.768  1.00  0.00     0.164 HD
ENDBRANCH  14  15
ENDBRANCH  12  14
ENDBRANCH   1  12
BRANCH   8  20
ATOM     20  N   UNL     1      34.422  87.439  11.613  1.00  0.00    -0.324 N 
ATOM     21  H   UNL     1      34.391  86.871  12.447  1.00  0.00     0.170 HD
BRANCH  20  22
ATOM     22  C   UNL     1      35.615  88.155  11.602  1.00  0.00     0.229 A 
ATOM     23  N   UNL     1      36.680  87.485  12.060  1.00  0.00    -0.221 NA
ATOM     24  N   UNL     1      35.687  89.422  11.175  1.00  0.00    -0.195 NA
ATOM     25  C   UNL     1      37.856  88.138  12.069  1.00  0.00     0.132 A 
ATOM     26  C   UNL     1      36.870  90.064  11.209  1.00  0.00     0.144 A 
ATOM     27  C   UNL     1      38.013  89.440  11.658  1.00  0.00     0.116 A 
BRANCH  26  28
ATOM     28  N   UNL     1      36.923  91.384  10.709  1.00  0.00    -0.367 N 
ATOM     29  H   UNL     1      37.835  91.571  10.292  1.00  0.00     0.162 HD
BRANCH  28  30
ATOM     30  C   UNL     1      36.433  92.510  11.466  1.00  0.00     0.080 C 
ATOM     31  C   UNL     1      35.944  93.657  10.554  1.00  0.00     0.025 C 
ATOM     32  C   UNL     1      37.551  93.457  11.957  1.00  0.00     0.025 C 
ATOM     33  C   UNL     1      37.341  94.295  10.681  1.00  0.00     0.004 C 
ENDBRANCH  28  30
ENDBRANCH  26  28
BRANCH  27  34
ATOM     34  C   UNL     1      39.347  90.086  11.669  1.00  0.00     0.421 C 
ATOM     35  F   UNL     1      39.474  91.071  10.740  1.00  0.00    -0.166 F 
ATOM     36  F   UNL     1      40.363  89.212  11.416  1.00  0.00    -0.166 F 
ATOM     37  F   UNL     1      39.658  90.655  12.870  1.00  0.00    -0.166 F 
ENDBRANCH  27  34
ENDBRANCH  20  22
ENDBRANCH   8  20
TORSDOF 8
ENDMDL
MODEL 6
REMARK VINA RESULT:      -8.2     10.101     13.902
REMARK SMILES CC(=O)NCC(=O)N1[C@@H]2CC[C@H]1c1ccc(Nc3ncc(C(F)(F)F)c(NC4CCC4)n3)cc12
REMARK SMILES IDX 8 1 12 2 11 3 10 4 9 5 34 6 33 7 16 8 15 9 14 10 13 11 6 12
REMARK SMILES IDX 7 13 5 14 4 15 2 16 3 17 1 18 17 20 18 22 19 23 32 24 20 25
REMARK SMILES IDX 26 26 21 27 27 28 28 30 29 31 31 32 30 33 22 34 23 35 24 36
REMARK SMILES IDX 25 37
REMARK H PARENT 4 19 17 21 27 29
ROOT
ATOM      1  N   UNL     1      28.855  86.207  10.447  1.00  0.00    -0.327 N 
ATOM      2  C   UNL     1      28.773  87.659  10.585  1.00  0.00     0.116 C 
ATOM      3  C   UNL     1      28.578  87.749  12.113  1.00  0.00     0.032 C 
ATOM      4  C   UNL     1      29.417  86.532  12.638  1.00  0.00     0.032 C 
ATOM      5  C   UNL     1      29.972  85.919  11.336  1.00  0.00     0.116 C 
ATOM      6  C   UNL     1      30.977  86.914  10.787  1.00  0.00    -0.018 A 
ATOM      7  C   UNL     1      32.355  86.904  10.719  1.00  0.00     0.032 A 
ATOM      8  C   UNL     1      33.010  88.016  10.153  1.00  0.00     0.041 A 
ATOM      9  C   UNL     1      32.229  89.104   9.695  1.00  0.00     0.026 A 
ATOM     10  C   UNL     1      30.828  89.113   9.770  1.00  0.00     0.008 A 
ATOM     11  C   UNL     1      30.221  88.009  10.315  1.00  0.00    -0.020 A 
ENDROOT
BRANCH   1  12
ATOM     12  C   UNL     1      28.588  85.455   9.329  1.00  0.00     0.242 C 
ATOM     13  O   UNL     1      28.628  84.222   9.338  1.00  0.00    -0.273 OA
BRANCH  12  14
ATOM     14  C   UNL     1      28.205  86.231   8.070  1.00  0.00     0.216 C 
BRANCH  14  15
ATOM     15  N   UNL     1      28.853  85.650   6.912  1.00  0.00    -0.347 N 
ATOM     16  C   UNL     1      30.047  86.132   6.444  1.00  0.00     0.217 C 
ATOM     17  O   UNL     1      30.624  87.092   6.944  1.00  0.00    -0.275 OA
ATOM     18  C   UNL     1      30.597  85.393   5.255  1.00  0.00     0.114 C 
ATOM     19  H   UNL     1      28.420  84.824   6.511  1.00  0.00     0.164 HD
ENDBRANCH  14  15
ENDBRANCH  12  14
ENDBRANCH   1  12
BRANCH   8  20
ATOM     20  N   UNL     1      34.411  87.997  10.104  1.00  0.00    -0.324 N 
ATOM     21  H   UNL     1      34.837  87.246   9.580  1.00  0.00     0.170 HD
BRANCH  20  22
ATOM     22  C   UNL     1      35.409  88.860  10.545  1.00  0.00     0.229 A 
ATOM     23  N   UNL     1      36.575  88.271  10.839  1.00  0.00    -0.221 NA
ATOM     24  N   UNL     1      35.212  90.178  10.674  1.00  0.00    -0.195 NA
ATOM     25  C   UNL     1      37.570  89.066  11.270  1.00  0.00     0.132 A 
ATOM     26  C   UNL     1      36.215  90.954  11.126  1.00  0.00     0.144 A 
ATOM     27  C   UNL     1      37.447  90.425  11.441  1.00  0.00     0.116 A 
BRANCH  26  28
ATOM     28  N   UNL     1      35.991  92.347  11.208  1.00  0.00    -0.367 N 
ATOM     29  H   UNL     1      35.206  92.546  11.827  1.00  0.00     0.162 HD
BRANCH  28  30
ATOM     30  C   UNL     1      35.986  93.191  10.039  1.00  0.00     0.080 C 
ATOM     31  C   UNL     1      37.286  94.015   9.909  1.00  0.00     0.025 C 
ATOM     32  C   UNL     1      35.233  94.525  10.245  1.00  0.00     0.025 C 
ATOM     33  C   UNL     1      36.575  95.172  10.637  1.00  0.00     0.004 C 
ENDBRANCH  28  30
ENDBRANCH  26  28
BRANCH  27  34
ATOM     34  C   UNL     1      38.598  91.242  11.893  1.00  0.00     0.421 C 
ATOM     35  F   UNL     1      38.229  92.348  12.595  1.00  0.00    -0.166 F 
ATOM     36  F   UNL     1      39.361  91.702  10.861  1.00  0.00    -0.166 F 
ATOM     37  F   UNL     1      39.462  90.555  12.696  1.00  0.00    -0.166 F 
ENDBRANCH  27  34
ENDBRANCH  20  22
ENDBRANCH   8  20
TORSDOF 8
ENDMDL
MODEL 7
REMARK VINA RESULT:      -7.9      7.600     12.033
REMARK SMILES CC(=O)NCC(=O)N1[C@@H]2CC[C@H]1c1ccc(Nc3ncc(C(F)(F)F)c(NC4CCC4)n3)cc12
REMARK SMILES IDX 8 1 12 2 11 3 10 4 9 5 34 6 33 7 16 8 15 9 14 10 13 11 6 12
REMARK SMILES IDX 7 13 5 14 4 15 2 16 3 17 1 18 17 20 18 22 19 23 32 24 20 25
REMARK SMILES IDX 26 26 21 27 27 28 28 30 29 31 31 32 30 33 22 34 23 35 24 36
REMARK SMILES IDX 25 37
REMARK H PARENT 4 19 17 21 27 29
ROOT
ATOM      1  N   UNL     1      37.545  85.946  13.586  1.00  0.00    -0.327 N 
ATOM      2  C   UNL     1      37.786  85.648  12.177  1.00  0.00     0.116 C 
ATOM      3  C   UNL     1      36.581  84.721  11.913  1.00  0.00     0.032 C 
ATOM      4  C   UNL     1      35.474  85.324  12.846  1.00  0.00     0.032 C 
ATOM      5  C   UNL     1      36.203  86.509  13.511  1.00  0.00     0.116 C 
ATOM      6  C   UNL     1      36.436  87.538  12.421  1.00  0.00    -0.018 A 
ATOM      7  C   UNL     1      35.860  88.764  12.160  1.00  0.00     0.032 A 
ATOM      8  C   UNL     1      36.294  89.485  11.031  1.00  0.00     0.041 A 
ATOM      9  C   UNL     1      37.289  88.914  10.200  1.00  0.00     0.026 A 
ATOM     10  C   UNL     1      37.869  87.664  10.466  1.00  0.00     0.008 A 
ATOM     11  C   UNL     1      37.433  86.994  11.582  1.00  0.00    -0.020 A 
ENDROOT
BRANCH   1  12
ATOM     12  C   UNL     1      38.461  86.345  14.529  1.00  0.00     0.242 C 
ATOM     13  O   UNL     1      38.246  86.254  15.740  1.00  0.00    -0.273 OA
BRANCH  12  14
ATOM     14  C   UNL     1      39.786  86.885  13.993  1.00  0.00     0.216 C 
BRANCH  14  15
ATOM     15  N   UNL     1      39.719  88.327  13.865  1.00  0.00    -0.347 N 
ATOM     16  C   UNL     1      40.348  88.984  12.842  1.00  0.00     0.217 C 
ATOM     17  O   UNL     1      41.026  88.412  11.995  1.00  0.00    -0.275 OA
ATOM     18  C   UNL     1      40.149  90.475  12.839  1.00  0.00     0.114 C 
ATOM     19  H   UNL     1      39.124  88.818  14.527  1.00  0.00     0.164 HD
ENDBRANCH  14  15
ENDBRANCH  12  14
ENDBRANCH   1  12
BRANCH   8  20
ATOM     20  N   UNL     1      35.690  90.723  10.770  1.00  0.00    -0.324 N 
ATOM     21  H   UNL     1      34.707  90.709  10.541  1.00  0.00     0.170 HD
BRANCH  20  22
ATOM     22  C   UNL     1      36.114  92.045  10.847  1.00  0.00     0.229 A 
ATOM     23  N   UNL     1      37.061  92.283  11.763  1.00  0.00    -0.221 NA
ATOM     24  N   UNL     1      35.605  93.008  10.067  1.00  0.00    -0.195 NA
ATOM     25  C   UNL     1      37.501  93.548  11.874  1.00  0.00     0.132 A 
ATOM     26  C   UNL     1      36.046  94.272  10.207  1.00  0.00     0.144 A 
ATOM     27  C   UNL     1      37.024  94.596  11.121  1.00  0.00     0.116 A 
BRANCH  26  28
ATOM     28  N   UNL     1      35.523  95.257   9.339  1.00  0.00    -0.367 N 
ATOM     29  H   UNL     1      36.064  96.119   9.409  1.00  0.00     0.162 HD
BRANCH  28  30
ATOM     30  C   UNL     1      34.107  95.513   9.238  1.00  0.00     0.080 C 
ATOM     31  C   UNL     1      33.808  96.916   8.664  1.00  0.00     0.025 C 
ATOM     32  C   UNL     1      33.470  95.987  10.564  1.00  0.00     0.025 C 
ATOM     33  C   UNL     1      33.708  97.440  10.109  1.00  0.00     0.004 C 
ENDBRANCH  28  30
ENDBRANCH  26  28
BRANCH  27  34
ATOM     34  C   UNL     1      37.579  95.960  11.278  1.00  0.00     0.421 C 
ATOM     35  F   UNL     1      36.875  96.908  10.601  1.00  0.00    -0.166 F 
ATOM     36  F   UNL     1      38.862  96.068  10.828  1.00  0.00    -0.166 F 
ATOM     37  F   UNL     1      37.623  96.376  12.578  1.00  0.00    -0.166 F 
ENDBRANCH  27  34
ENDBRANCH  20  22
ENDBRANCH   8  20
TORSDOF 8
ENDMDL
