MODEL 1
REMARK VINA RESULT:     -10.5      0.000      0.000
REMARK SMILES CC(=O)Nc1ccc(-c2cc3c(N4CCN(C(=O)Nc5ccc(OC(F)(F)F)cc5)CC4)ncnc3[nH]2)cn1
REMARK SMILES IDX 13 1 14 2 15 3 16 4 17 5 18 6 19 7 31 8 32 9 12 11 9 12
REMARK SMILES IDX 10 13 37 14 11 15 36 16 35 17 33 18 34 19 8 21 5 22 6 23
REMARK SMILES IDX 39 24 7 25 38 26 4 27 2 28 3 29 1 30 20 32 21 33 30 34 22 35
REMARK SMILES IDX 29 36 23 37 24 38 25 39 26 40 27 41 28 42
REMARK H PARENT 19 10 37 20 4 31
ROOT
ATOM      1  N   UNL     1      35.761  89.801  11.488  1.00  0.00    -0.352 N 
ATOM      2  C   UNL     1      35.114  89.641  10.178  1.00  0.00     0.139 C 
ATOM      3  C   UNL     1      33.861  88.757  10.316  1.00  0.00     0.143 C 
ATOM      4  N   UNL     1      34.125  87.466  10.971  1.00  0.00    -0.321 N 
ATOM      5  C   UNL     1      33.263  86.375  10.979  1.00  0.00     0.321 C 
ATOM      6  O   UNL     1      33.639  85.278  11.382  1.00  0.00    -0.248 OA
ATOM      7  N   UNL     1      31.995  86.652  10.515  1.00  0.00    -0.308 N 
ATOM      8  C   UNL     1      35.473  87.303  11.521  1.00  0.00     0.143 C 
ATOM      9  C   UNL     1      35.968  88.560  12.262  1.00  0.00     0.139 C 
ATOM     10  H   UNL     1      31.768  87.622  10.403  1.00  0.00     0.171 HD
ENDROOT
BRANCH   1  11
ATOM     11  C   UNL     1      36.835  90.698  11.505  1.00  0.00     0.141 A 
ATOM     12  C   UNL     1      36.202  94.209  10.540  1.00  0.00     0.049 A 
ATOM     13  C   UNL     1      35.672  92.941  10.738  1.00  0.00     0.042 A 
ATOM     14  N   UNL     1      37.546  94.109  10.843  1.00  0.00    -0.339 N 
ATOM     15  C   UNL     1      36.712  92.064  11.168  1.00  0.00     0.062 A 
ATOM     16  C   UNL     1      37.862  92.831  11.214  1.00  0.00     0.143 A 
ATOM     17  N   UNL     1      39.095  92.426  11.546  1.00  0.00    -0.218 NA
ATOM     18  N   UNL     1      38.081  90.248  11.817  1.00  0.00    -0.219 NA
ATOM     19  C   UNL     1      39.113  91.115  11.827  1.00  0.00     0.226 A 
ATOM     20  H   UNL     1      38.227  94.855  10.806  1.00  0.00     0.168 HD
BRANCH  12  21
ATOM     21  C   UNL     1      35.567  95.450  10.095  1.00  0.00     0.017 A 
ATOM     22  C   UNL     1      34.411  97.837   9.263  1.00  0.00     0.132 A 
ATOM     23  C   UNL     1      33.724  96.642   9.075  1.00  0.00     0.048 A 
ATOM     24  N   UNL     1      35.623  97.868   9.837  1.00  0.00    -0.238 NA
ATOM     25  C   UNL     1      34.308  95.444   9.495  1.00  0.00     0.016 A 
ATOM     26  C   UNL     1      36.173  96.694  10.230  1.00  0.00     0.123 A 
BRANCH  22  27
ATOM     27  N   UNL     1      33.789  99.014   8.825  1.00  0.00    -0.311 N 
ATOM     28  C   UNL     1      32.938  99.797   9.581  1.00  0.00     0.222 C 
ATOM     29  O   UNL     1      32.570  99.613  10.734  1.00  0.00    -0.275 OA
ATOM     30  C   UNL     1      32.460 101.000   8.805  1.00  0.00     0.114 C 
ATOM     31  H   UNL     1      33.979  99.306   7.878  1.00  0.00     0.171 HD
ENDBRANCH  22  27
ENDBRANCH  12  21
ENDBRANCH   1  11
BRANCH   7  32
ATOM     32  C   UNL     1      30.926  85.749  10.331  1.00  0.00     0.043 A 
ATOM     33  C   UNL     1      30.835  85.113   9.089  1.00  0.00     0.030 A 
ATOM     34  C   UNL     1      29.975  85.446  11.305  1.00  0.00     0.030 A 
ATOM     35  C   UNL     1      29.802  84.207   8.828  1.00  0.00     0.049 A 
ATOM     36  C   UNL     1      28.941  84.534  11.045  1.00  0.00     0.049 A 
ATOM     37  C   UNL     1      28.846  83.911   9.803  1.00  0.00     0.129 A 
BRANCH  37  38
ATOM     38  O   UNL     1      27.896  83.015   9.411  1.00  0.00    -0.406 OA
BRANCH  38  39
ATOM     39  C   UNL     1      26.620  83.517   9.057  1.00  0.00     0.573 C 
ATOM     40  F   UNL     1      25.751  83.221  10.049  1.00  0.00    -0.132 F 
ATOM     41  F   UNL     1      26.167  82.948   7.922  1.00  0.00    -0.132 F 
ATOM     42  F   UNL     1      26.646  84.858   8.912  1.00  0.00    -0.132 F 
ENDBRANCH  38  39
ENDBRANCH  37  38
ENDBRANCH   7  32
TORSDOF 6
ENDMDL
MODEL 2
REMARK VINA RESULT:     -10.4      4.960     11.702
REMARK SMILES CC(=O)Nc1ccc(-c2cc3c(N4CCN(C(=O)Nc5ccc(OC(F)(F)F)cc5)CC4)ncnc3[nH]2)cn1
REMARK SMILES IDX 13 1 14 2 15 3 16 4 17 5 18 6 19 7 31 8 32 9 12 11 9 12
REMARK SMILES IDX 10 13 37 14 11 15 36 16 35 17 33 18 34 19 8 21 5 22 6 23
REMARK SMILES IDX 39 24 7 25 38 26 4 27 2 28 3 29 1 30 20 32 21 33 30 34 22 35
REMARK SMILES IDX 29 36 23 37 24 38 25 39 26 40 27 41 28 42
REMARK H PARENT 19 10 37 20 4 31
ROOT
ATOM      1  N   UNL     1      37.850  91.565  11.124  1.00  0.00    -0.352 N 
ATOM      2  C   UNL     1      36.423  91.842  11.349  1.00  0.00     0.139 C 
ATOM      3  C   UNL     1      36.016  93.128  10.607  1.00  0.00     0.143 C 
ATOM      4  N   UNL     1      36.867  94.283  10.928  1.00  0.00    -0.321 N 
ATOM      5  C   UNL     1      36.572  95.609  10.632  1.00  0.00     0.321 C 
ATOM      6  O   UNL     1      37.240  96.525  11.103  1.00  0.00    -0.248 OA
ATOM      7  N   UNL     1      35.499  95.774   9.781  1.00  0.00    -0.308 N 
ATOM      8  C   UNL     1      38.039  93.992  11.757  1.00  0.00     0.143 C 
ATOM      9  C   UNL     1      38.768  92.705  11.323  1.00  0.00     0.139 C 
ATOM     10  H   UNL     1      35.169  94.946   9.321  1.00  0.00     0.171 HD
ENDROOT
BRANCH   1  11
ATOM     11  C   UNL     1      38.297  90.345  11.642  1.00  0.00     0.141 A 
ATOM     12  C   UNL     1      36.028  87.432  11.480  1.00  0.00     0.049 A 
ATOM     13  C   UNL     1      36.224  88.776  11.186  1.00  0.00     0.042 A 
ATOM     14  N   UNL     1      37.191  87.005  12.090  1.00  0.00    -0.339 N 
ATOM     15  C   UNL     1      37.524  89.163  11.625  1.00  0.00     0.062 A 
ATOM     16  C   UNL     1      38.089  88.031  12.187  1.00  0.00     0.143 A 
ATOM     17  N   UNL     1      39.299  87.923  12.751  1.00  0.00    -0.218 NA
ATOM     18  N   UNL     1      39.520  90.275  12.237  1.00  0.00    -0.219 NA
ATOM     19  C   UNL     1      39.945  89.098  12.738  1.00  0.00     0.226 A 
ATOM     20  H   UNL     1      37.383  86.072  12.429  1.00  0.00     0.168 HD
BRANCH  12  21
ATOM     21  C   UNL     1      34.873  86.564  11.247  1.00  0.00     0.017 A 
ATOM     22  C   UNL     1      32.703  84.873  10.846  1.00  0.00     0.132 A 
ATOM     23  C   UNL     1      32.689  86.149  10.290  1.00  0.00     0.048 A 
ATOM     24  N   UNL     1      33.740  84.436  11.575  1.00  0.00    -0.238 NA
ATOM     25  C   UNL     1      33.782  86.996  10.494  1.00  0.00     0.016 A 
ATOM     26  C   UNL     1      34.786  85.276  11.765  1.00  0.00     0.123 A 
BRANCH  22  27
ATOM     27  N   UNL     1      31.586  84.059  10.618  1.00  0.00    -0.311 N 
ATOM     28  C   UNL     1      30.429  84.060  11.374  1.00  0.00     0.222 C 
ATOM     29  O   UNL     1      30.172  84.743  12.357  1.00  0.00    -0.275 OA
ATOM     30  C   UNL     1      29.422  83.070  10.842  1.00  0.00     0.114 C 
ATOM     31  H   UNL     1      31.638  83.419   9.841  1.00  0.00     0.171 HD
ENDBRANCH  22  27
ENDBRANCH  12  21
ENDBRANCH   1  11
BRANCH   7  32
ATOM     32  C   UNL     1      34.911  96.985   9.355  1.00  0.00     0.043 A 
ATOM     33  C   UNL     1      34.120  97.670  10.282  1.00  0.00     0.030 A 
ATOM     34  C   UNL     1      35.082  97.538   8.087  1.00  0.00     0.030 A 
ATOM     35  C   UNL     1      33.501  98.875   9.936  1.00  0.00     0.049 A 
ATOM     36  C   UNL     1      34.465  98.750   7.740  1.00  0.00     0.049 A 
ATOM     37  C   UNL     1      33.667  99.424   8.662  1.00  0.00     0.129 A 
BRANCH  37  38
ATOM     38  O   UNL     1      33.004 100.599   8.460  1.00  0.00    -0.406 OA
BRANCH  38  39
ATOM     39  C   UNL     1      31.712 100.538   7.883  1.00  0.00     0.573 C 
ATOM     40  F   UNL     1      31.750 101.150   6.678  1.00  0.00    -0.132 F 
ATOM     41  F   UNL     1      30.804 101.177   8.647  1.00  0.00    -0.132 F 
ATOM     42  F   UNL     1      31.323  99.261   7.690  1.00  0.00    -0.132 F 
ENDBRANCH  38  39
ENDBRANCH  37  38
ENDBRANCH   7  32
TORSDOF 6
ENDMDL
MODEL 3
REMARK VINA RESULT:      -9.0      6.727     12.384
REMARK SMILES CC(=O)Nc1ccc(-c2cc3c(N4CCN(C(=O)Nc5ccc(OC(F)(F)F)cc5)CC4)ncnc3[nH]2)cn1
REMARK SMILES IDX 13 1 14 2 15 3 16 4 17 5 18 6 19 7 31 8 32 9 12 11 9 12
REMARK SMILES IDX 10 13 37 14 11 15 36 16 35 17 33 18 34 19 8 21 5 22 6 23
REMARK SMILES IDX 39 24 7 25 38 26 4 27 2 28 3 29 1 30 20 32 21 33 30 34 22 35
REMARK SMILES IDX 29 36 23 37 24 38 25 39 26 40 27 41 28 42
REMARK H PARENT 19 10 37 20 4 31
ROOT
ATOM      1  N   UNL     1      36.867  88.070  11.232  1.00  0.00    -0.352 N 
ATOM      2  C   UNL     1      35.906  88.862  12.014  1.00  0.00     0.139 C 
ATOM      3  C   UNL     1      35.777  90.272  11.411  1.00  0.00     0.143 C 
ATOM      4  N   UNL     1      37.066  90.960  11.248  1.00  0.00    -0.321 N 
ATOM      5  C   UNL     1      37.230  92.318  10.996  1.00  0.00     0.321 C 
ATOM      6  O   UNL     1      38.338  92.843  11.065  1.00  0.00    -0.248 OA
ATOM      7  N   UNL     1      36.064  92.977  10.668  1.00  0.00    -0.308 N 
ATOM      8  C   UNL     1      38.253  90.148  11.525  1.00  0.00     0.143 C 
ATOM      9  C   UNL     1      38.154  88.729  10.931  1.00  0.00     0.139 C 
ATOM     10  H   UNL     1      35.273  92.398  10.459  1.00  0.00     0.171 HD
ENDROOT
BRANCH   1  11
ATOM     11  C   UNL     1      36.963  86.726  11.611  1.00  0.00     0.141 A 
ATOM     12  C   UNL     1      39.184  85.854  14.434  1.00  0.00     0.049 A 
ATOM     13  C   UNL     1      38.661  86.858  13.629  1.00  0.00     0.042 A 
ATOM     14  N   UNL     1      38.621  84.676  13.983  1.00  0.00    -0.339 N 
ATOM     15  C   UNL     1      37.769  86.276  12.680  1.00  0.00     0.062 A 
ATOM     16  C   UNL     1      37.778  84.915  12.933  1.00  0.00     0.143 A 
ATOM     17  N   UNL     1      37.103  83.963  12.277  1.00  0.00    -0.218 NA
ATOM     18  N   UNL     1      36.289  85.779  10.903  1.00  0.00    -0.219 NA
ATOM     19  C   UNL     1      36.388  84.485  11.270  1.00  0.00     0.226 A 
ATOM     20  H   UNL     1      38.786  83.751  14.355  1.00  0.00     0.168 HD
BRANCH  12  21
ATOM     21  C   UNL     1      40.140  85.919  15.540  1.00  0.00     0.017 A 
ATOM     22  C   UNL     1      41.965  85.983  17.636  1.00  0.00     0.132 A 
ATOM     23  C   UNL     1      41.493  87.178  17.103  1.00  0.00     0.048 A 
ATOM     24  N   UNL     1      41.562  84.795  17.162  1.00  0.00    -0.238 NA
ATOM     25  C   UNL     1      40.575  87.143  16.049  1.00  0.00     0.016 A 
ATOM     26  C   UNL     1      40.677  84.783  16.136  1.00  0.00     0.123 A 
BRANCH  22  27
ATOM     27  N   UNL     1      42.884  86.066  18.689  1.00  0.00    -0.311 N 
ATOM     28  C   UNL     1      44.246  86.253  18.548  1.00  0.00     0.222 C 
ATOM     29  O   UNL     1      44.888  86.370  17.511  1.00  0.00    -0.275 OA
ATOM     30  C   UNL     1      44.937  86.310  19.888  1.00  0.00     0.114 C 
ATOM     31  H   UNL     1      42.518  85.976  19.625  1.00  0.00     0.171 HD
ENDBRANCH  22  27
ENDBRANCH  12  21
ENDBRANCH   1  11
BRANCH   7  32
ATOM     32  C   UNL     1      35.889  94.358  10.432  1.00  0.00     0.043 A 
ATOM     33  C   UNL     1      34.807  94.736   9.631  1.00  0.00     0.030 A 
ATOM     34  C   UNL     1      36.712  95.355  10.954  1.00  0.00     0.030 A 
ATOM     35  C   UNL     1      34.568  96.085   9.349  1.00  0.00     0.049 A 
ATOM     36  C   UNL     1      36.471  96.709  10.675  1.00  0.00     0.049 A 
ATOM     37  C   UNL     1      35.398  97.082   9.867  1.00  0.00     0.129 A 
BRANCH  37  38
ATOM     38  O   UNL     1      35.052  98.351   9.508  1.00  0.00    -0.406 OA
BRANCH  38  39
ATOM     39  C   UNL     1      33.743  98.793   9.821  1.00  0.00     0.573 C 
ATOM     40  F   UNL     1      33.753 100.142   9.902  1.00  0.00    -0.132 F 
ATOM     41  F   UNL     1      33.333  98.307  11.010  1.00  0.00    -0.132 F 
ATOM     42  F   UNL     1      32.865  98.439   8.860  1.00  0.00    -0.132 F 
ENDBRANCH  38  39
ENDBRANCH  37  38
ENDBRANCH   7  32
TORSDOF 6
ENDMDL
MODEL 4
REMARK VINA RESULT:      -8.4      5.547      8.634
REMARK SMILES CC(=O)Nc1ccc(-c2cc3c(N4CCN(C(=O)Nc5ccc(OC(F)(F)F)cc5)CC4)ncnc3[nH]2)cn1
REMARK SMILES IDX 13 1 14 2 15 3 16 4 17 5 18 6 19 7 31 8 32 9 12 11 9 12
REMARK SMILES IDX 10 13 37 14 11 15 36 16 35 17 33 18 34 19 8 21 5 22 6 23
REMARK SMILES IDX 39 24 7 25 38 26 4 27 2 28 3 29 1 30 20 32 21 33 30 34 22 35
REMARK SMILES IDX 29 36 23 37 24 38 25 39 26 40 27 41 28 42
REMARK H PARENT 19 10 37 20 4 31
ROOT
ATOM      1  N   UNL     1      35.007  96.674   9.142  1.00  0.00    -0.352 N 
ATOM      2  C   UNL     1      35.417  95.538   8.304  1.00  0.00     0.139 C 
ATOM      3  C   UNL     1      35.413  94.244   9.138  1.00  0.00     0.143 C 
ATOM      4  N   UNL     1      36.203  94.341  10.374  1.00  0.00    -0.321 N 
ATOM      5  C   UNL     1      36.601  93.268  11.164  1.00  0.00     0.321 C 
ATOM      6  O   UNL     1      37.417  93.419  12.069  1.00  0.00    -0.248 OA
ATOM      7  N   UNL     1      35.999  92.072  10.838  1.00  0.00    -0.308 N 
ATOM      8  C   UNL     1      36.721  95.675  10.688  1.00  0.00     0.143 C 
ATOM      9  C   UNL     1      35.679  96.786  10.452  1.00  0.00     0.139 C 
ATOM     10  H   UNL     1      35.216  92.127  10.214  1.00  0.00     0.171 HD
ENDROOT
BRANCH   1  11
ATOM     11  C   UNL     1      34.845  97.881   8.452  1.00  0.00     0.141 A 
ATOM     12  C   UNL     1      32.268 100.248   9.643  1.00  0.00     0.049 A 
ATOM     13  C   UNL     1      32.904  99.027   9.827  1.00  0.00     0.042 A 
ATOM     14  N   UNL     1      32.868 100.824   8.540  1.00  0.00    -0.339 N 
ATOM     15  C   UNL     1      33.902  98.866   8.821  1.00  0.00     0.062 A 
ATOM     16  C   UNL     1      33.842 100.005   8.038  1.00  0.00     0.143 A 
ATOM     17  N   UNL     1      34.582 100.289   6.959  1.00  0.00    -0.218 NA
ATOM     18  N   UNL     1      35.591  98.125   7.341  1.00  0.00    -0.219 NA
ATOM     19  C   UNL     1      35.428  99.288   6.678  1.00  0.00     0.226 A 
ATOM     20  H   UNL     1      32.644 101.723   8.136  1.00  0.00     0.168 HD
BRANCH  12  21
ATOM     21  C   UNL     1      31.178 100.879  10.389  1.00  0.00     0.017 A 
ATOM     22  C   UNL     1      29.069 102.055  11.766  1.00  0.00     0.132 A 
ATOM     23  C   UNL     1      30.339 102.050  12.334  1.00  0.00     0.048 A 
ATOM     24  N   UNL     1      28.834 101.504  10.566  1.00  0.00    -0.238 NA
ATOM     25  C   UNL     1      31.397 101.458  11.639  1.00  0.00     0.016 A 
ATOM     26  C   UNL     1      29.873 100.929   9.912  1.00  0.00     0.123 A 
BRANCH  22  27
ATOM     27  N   UNL     1      28.038 102.658  12.498  1.00  0.00    -0.311 N 
ATOM     28  C   UNL     1      27.428 103.857  12.181  1.00  0.00     0.222 C 
ATOM     29  O   UNL     1      27.671 104.600  11.239  1.00  0.00    -0.275 OA
ATOM     30  C   UNL     1      26.346 104.204  13.174  1.00  0.00     0.114 C 
ATOM     31  H   UNL     1      27.721 102.174  13.324  1.00  0.00     0.171 HD
ENDBRANCH  22  27
ENDBRANCH  12  21
ENDBRANCH   1  11
BRANCH   7  32
ATOM     32  C   UNL     1      36.245  90.799  11.398  1.00  0.00     0.043 A 
ATOM     33  C   UNL     1      35.134  90.065  11.825  1.00  0.00     0.030 A 
ATOM     34  C   UNL     1      37.511  90.232  11.537  1.00  0.00     0.030 A 
ATOM     35  C   UNL     1      35.295  88.798  12.394  1.00  0.00     0.049 A 
ATOM     36  C   UNL     1      37.673  88.959  12.103  1.00  0.00     0.049 A 
ATOM     37  C   UNL     1      36.565  88.235  12.539  1.00  0.00     0.129 A 
BRANCH  37  38
ATOM     38  O   UNL     1      36.575  86.997  13.112  1.00  0.00    -0.406 OA
BRANCH  38  39
ATOM     39  C   UNL     1      36.911  86.906  14.484  1.00  0.00     0.573 C 
ATOM     40  F   UNL     1      36.964  85.600  14.829  1.00  0.00    -0.132 F 
ATOM     41  F   UNL     1      35.981  87.504  15.257  1.00  0.00    -0.132 F 
ATOM     42  F   UNL     1      38.120  87.451  14.728  1.00  0.00    -0.132 F 
ENDBRANCH  38  39
ENDBRANCH  37  38
ENDBRANCH   7  32
TORSDOF 6
ENDMDL
MODEL 5
REMARK VINA RESULT:      -8.2      5.755     12.251
REMARK SMILES CC(=O)Nc1ccc(-c2cc3c(N4CCN(C(=O)Nc5ccc(OC(F)(F)F)cc5)CC4)ncnc3[nH]2)cn1
REMARK SMILES IDX 13 1 14 2 15 3 16 4 17 5 18 6 19 7 31 8 32 9 12 11 9 12
REMARK SMILES IDX 10 13 37 14 11 15 36 16 35 17 33 18 34 19 8 21 5 22 6 23
REMARK SMILES IDX 39 24 7 25 38 26 4 27 2 28 3 29 1 30 20 32 21 33 30 34 22 35
REMARK SMILES IDX 29 36 23 37 24 38 25 39 26 40 27 41 28 42
REMARK H PARENT 19 10 37 20 4 31
ROOT
ATOM      1  N   UNL     1      35.742  95.574  10.853  1.00  0.00    -0.352 N 
ATOM      2  C   UNL     1      36.050  97.012  10.864  1.00  0.00     0.139 C 
ATOM      3  C   UNL     1      34.745  97.827  10.903  1.00  0.00     0.143 C 
ATOM      4  N   UNL     1      33.797  97.466   9.839  1.00  0.00    -0.321 N 
ATOM      5  C   UNL     1      32.683  98.210   9.464  1.00  0.00     0.321 C 
ATOM      6  O   UNL     1      32.057  97.938   8.444  1.00  0.00    -0.248 OA
ATOM      7  N   UNL     1      32.369  99.234  10.332  1.00  0.00    -0.308 N 
ATOM      8  C   UNL     1      34.169  96.303   9.030  1.00  0.00     0.143 C 
ATOM      9  C   UNL     1      34.718  95.140   9.881  1.00  0.00     0.139 C 
ATOM     10  H   UNL     1      32.839  99.223  11.217  1.00  0.00     0.171 HD
ENDROOT
BRANCH   1  11
ATOM     11  C   UNL     1      36.858  94.736  10.954  1.00  0.00     0.141 A 
ATOM     12  C   UNL     1      36.324  91.082  10.802  1.00  0.00     0.049 A 
ATOM     13  C   UNL     1      35.752  92.346  10.761  1.00  0.00     0.042 A 
ATOM     14  N   UNL     1      37.681  91.286  10.962  1.00  0.00    -0.339 N 
ATOM     15  C   UNL     1      36.778  93.327  10.897  1.00  0.00     0.062 A 
ATOM     16  C   UNL     1      37.963  92.623  11.026  1.00  0.00     0.143 A 
ATOM     17  N   UNL     1      39.192  93.126  11.197  1.00  0.00    -0.218 NA
ATOM     18  N   UNL     1      38.089  95.278  11.160  1.00  0.00    -0.219 NA
ATOM     19  C   UNL     1      39.160  94.465  11.260  1.00  0.00     0.226 A 
ATOM     20  H   UNL     1      38.393  90.571  11.026  1.00  0.00     0.168 HD
BRANCH  12  21
ATOM     21  C   UNL     1      35.714  89.754  10.716  1.00  0.00     0.017 A 
ATOM     22  C   UNL     1      34.609  87.208  10.560  1.00  0.00     0.132 A 
ATOM     23  C   UNL     1      33.770  88.316  10.610  1.00  0.00     0.048 A 
ATOM     24  N   UNL     1      35.944  87.336  10.587  1.00  0.00    -0.238 NA
ATOM     25  C   UNL     1      34.329  89.595  10.688  1.00  0.00     0.016 A 
ATOM     26  C   UNL     1      36.464  88.584  10.669  1.00  0.00     0.123 A 
BRANCH  22  27
ATOM     27  N   UNL     1      34.006  85.946  10.485  1.00  0.00    -0.311 N 
ATOM     28  C   UNL     1      34.049  84.980  11.472  1.00  0.00     0.222 C 
ATOM     29  O   UNL     1      34.609  85.038  12.560  1.00  0.00    -0.275 OA
ATOM     30  C   UNL     1      33.281  83.745  11.069  1.00  0.00     0.114 C 
ATOM     31  H   UNL     1      33.505  85.728   9.637  1.00  0.00     0.171 HD
ENDBRANCH  22  27
ENDBRANCH  12  21
ENDBRANCH   1  11
BRANCH   7  32
ATOM     32  C   UNL     1      31.351 100.203  10.194  1.00  0.00     0.043 A 
ATOM     33  C   UNL     1      31.155 101.078  11.266  1.00  0.00     0.030 A 
ATOM     34  C   UNL     1      30.550 100.345   9.062  1.00  0.00     0.030 A 
ATOM     35  C   UNL     1      30.164 102.064  11.207  1.00  0.00     0.049 A 
ATOM     36  C   UNL     1      29.558 101.337   9.000  1.00  0.00     0.049 A 
ATOM     37  C   UNL     1      29.357 102.200  10.074  1.00  0.00     0.129 A 
BRANCH  37  38
ATOM     38  O   UNL     1      28.431 103.198  10.155  1.00  0.00    -0.406 OA
BRANCH  38  39
ATOM     39  C   UNL     1      27.096 102.839  10.461  1.00  0.00     0.573 C 
ATOM     40  F   UNL     1      26.375 103.969  10.631  1.00  0.00    -0.132 F 
ATOM     41  F   UNL     1      27.031 102.126  11.603  1.00  0.00    -0.132 F 
ATOM     42  F   UNL     1      26.537 102.135   9.455  1.00  0.00    -0.132 F 
ENDBRANCH  38  39
ENDBRANCH  37  38
ENDBRANCH   7  32
TORSDOF 6
ENDMDL
