MODEL 1
REMARK VINA RESULT:     -11.4      0.000      0.000
REMARK SMILES CC(=N)Nc1ccc(-c2ncnc3cc(C4=CCN(C(=O)N5CCOCC5)CC4)sc23)cc1
REMARK SMILES IDX 9 1 10 2 11 3 12 4 13 5 14 6 15 7 30 8 31 9 8 10 5 11 6 12
REMARK SMILES IDX 33 13 7 14 32 15 4 16 2 17 3 18 1 19 16 22 17 23 29 24 18 25
REMARK SMILES IDX 28 26 19 27 20 28 21 29 22 30 23 31 27 32 24 33 26 34 25 35
REMARK H PARENT 3 20 4 21
ROOT
ATOM      1  C   UNL     1      34.874  98.013   8.455  1.00  0.00     0.091 A 
ATOM      2  N   UNL     1      35.547  98.251   7.301  1.00  0.00    -0.235 NA
ATOM      3  C   UNL     1      35.179  99.293   6.547  1.00  0.00     0.223 A 
ATOM      4  N   UNL     1      34.209 100.172   6.806  1.00  0.00    -0.235 NA
ATOM      5  C   UNL     1      33.555  99.951   7.969  1.00  0.00     0.086 A 
ATOM      6  C   UNL     1      32.501 100.769   8.470  1.00  0.00     0.049 A 
ATOM      7  C   UNL     1      31.994 100.363   9.692  1.00  0.00     0.033 A 
ATOM      8  S   UNL     1      32.825  98.931  10.189  1.00  0.00    -0.132 S 
ATOM      9  C   UNL     1      33.847  98.889   8.815  1.00  0.00     0.080 A 
ENDROOT
BRANCH   1  10
ATOM     10  C   UNL     1      35.310  96.857   9.240  1.00  0.00     0.002 A 
ATOM     11  C   UNL     1      36.258  94.614  10.742  1.00  0.00     0.039 A 
ATOM     12  C   UNL     1      35.187  94.494   9.839  1.00  0.00     0.027 A 
ATOM     13  C   UNL     1      36.830  95.878  10.890  1.00  0.00     0.027 A 
ATOM     14  C   UNL     1      34.726  95.592   9.096  1.00  0.00     0.012 A 
ATOM     15  C   UNL     1      36.373  96.976  10.148  1.00  0.00     0.012 A 
BRANCH  11  16
ATOM     16  N   UNL     1      36.671  93.472  11.452  1.00  0.00    -0.344 N 
ATOM     17  C   UNL     1      37.941  93.040  11.762  1.00  0.00     0.094 C 
ATOM     18  N   UNL     1      39.036  93.708  11.605  1.00  0.00    -0.289 NA
ATOM     19  C   UNL     1      38.056  91.647  12.351  1.00  0.00     0.087 C 
ATOM     20  H   UNL     1      39.849  93.163  11.913  1.00  0.00     0.189 HD
ATOM     21  H   UNL     1      35.906  92.853  11.693  1.00  0.00     0.168 HD
ENDBRANCH  11  16
ENDBRANCH   1  10
BRANCH   7  22
ATOM     22  C   UNL     1      30.931 100.990  10.455  1.00  0.00    -0.031 C 
ATOM     23  C   UNL     1      31.186 101.566  11.649  1.00  0.00    -0.001 C 
ATOM     24  C   UNL     1      29.491 101.069   9.974  1.00  0.00     0.058 C 
ATOM     25  C   UNL     1      30.175 102.232  12.541  1.00  0.00     0.149 C 
ATOM     26  C   UNL     1      28.818 102.355  10.443  1.00  0.00     0.126 C 
ATOM     27  N   UNL     1      28.907 102.528  11.891  1.00  0.00    -0.321 N 
BRANCH  27  28
ATOM     28  C   UNL     1      27.877 102.957  12.713  1.00  0.00     0.320 C 
ATOM     29  O   UNL     1      28.036 103.099  13.928  1.00  0.00    -0.248 OA
ATOM     30  N   UNL     1      26.641 103.181  12.112  1.00  0.00    -0.320 N 
ATOM     31  C   UNL     1      25.492 103.201  13.026  1.00  0.00     0.150 C 
ATOM     32  C   UNL     1      26.549 104.251  11.108  1.00  0.00     0.150 C 
ATOM     33  C   UNL     1      24.166 103.207  12.257  1.00  0.00     0.181 C 
ATOM     34  C   UNL     1      25.201 104.204  10.381  1.00  0.00     0.181 C 
ATOM     35  O   UNL     1      24.112 104.290  11.310  1.00  0.00    -0.378 OA
ENDBRANCH  27  28
ENDBRANCH   7  22
TORSDOF 4
ENDMDL
MODEL 2
REMARK VINA RESULT:      -9.8      7.540     12.828
REMARK SMILES CC(=N)Nc1ccc(-c2ncnc3cc(C4=CCN(C(=O)N5CCOCC5)CC4)sc23)cc1
REMARK SMILES IDX 9 1 10 2 11 3 12 4 13 5 14 6 15 7 30 8 31 9 8 10 5 11 6 12
REMARK SMILES IDX 33 13 7 14 32 15 4 16 2 17 3 18 1 19 16 22 17 23 29 24 18 25
REMARK SMILES IDX 28 26 19 27 20 28 21 29 22 30 23 31 27 32 24 33 26 34 25 35
REMARK H PARENT 3 20 4 21
ROOT
ATOM      1  C   UNL     1      37.645  91.969  11.194  1.00  0.00     0.091 A 
ATOM      2  N   UNL     1      38.951  91.865  11.549  1.00  0.00    -0.235 NA
ATOM      3  C   UNL     1      39.442  90.653  11.836  1.00  0.00     0.223 A 
ATOM      4  N   UNL     1      38.791  89.489  11.797  1.00  0.00    -0.235 NA
ATOM      5  C   UNL     1      37.496  89.590  11.418  1.00  0.00     0.086 A 
ATOM      6  C   UNL     1      36.608  88.484  11.278  1.00  0.00     0.049 A 
ATOM      7  C   UNL     1      35.335  88.823  10.858  1.00  0.00     0.033 A 
ATOM      8  S   UNL     1      35.251  90.540  10.672  1.00  0.00    -0.132 S 
ATOM      9  C   UNL     1      36.884  90.800  11.115  1.00  0.00     0.080 A 
ENDROOT
BRANCH   1  10
ATOM     10  C   UNL     1      37.153  93.316  10.898  1.00  0.00     0.002 A 
ATOM     11  C   UNL     1      36.184  95.964  10.422  1.00  0.00     0.039 A 
ATOM     12  C   UNL     1      35.582  94.843   9.824  1.00  0.00     0.027 A 
ATOM     13  C   UNL     1      37.287  95.735  11.246  1.00  0.00     0.027 A 
ATOM     14  C   UNL     1      36.052  93.543  10.062  1.00  0.00     0.012 A 
ATOM     15  C   UNL     1      37.757  94.436  11.488  1.00  0.00     0.012 A 
BRANCH  11  16
ATOM     16  N   UNL     1      35.659  97.240  10.141  1.00  0.00    -0.344 N 
ATOM     17  C   UNL     1      34.350  97.643  10.006  1.00  0.00     0.094 C 
ATOM     18  N   UNL     1      33.301  96.942  10.289  1.00  0.00    -0.289 NA
ATOM     19  C   UNL     1      34.126  99.048   9.482  1.00  0.00     0.087 C 
ATOM     20  H   UNL     1      32.442  97.471  10.100  1.00  0.00     0.189 HD
ATOM     21  H   UNL     1      36.374  97.929   9.936  1.00  0.00     0.168 HD
ENDBRANCH  11  16
ENDBRANCH   1  10
BRANCH   7  22
ATOM     22  C   UNL     1      34.219  87.926  10.618  1.00  0.00    -0.031 C 
ATOM     23  C   UNL     1      34.386  86.588  10.668  1.00  0.00    -0.001 C 
ATOM     24  C   UNL     1      32.808  88.409  10.324  1.00  0.00     0.058 C 
ATOM     25  C   UNL     1      33.320  85.556  10.424  1.00  0.00     0.149 C 
ATOM     26  C   UNL     1      31.764  87.457  10.900  1.00  0.00     0.126 C 
ATOM     27  N   UNL     1      31.962  86.082  10.448  1.00  0.00    -0.321 N 
BRANCH  27  28
ATOM     28  C   UNL     1      30.960  85.219  10.035  1.00  0.00     0.320 C 
ATOM     29  O   UNL     1      30.744  84.152  10.615  1.00  0.00    -0.248 OA
ATOM     30  N   UNL     1      30.232  85.592   8.908  1.00  0.00    -0.320 N 
ATOM     31  C   UNL     1      29.504  84.505   8.242  1.00  0.00     0.150 C 
ATOM     32  C   UNL     1      29.419  86.815   8.987  1.00  0.00     0.150 C 
ATOM     33  C   UNL     1      28.941  84.955   6.889  1.00  0.00     0.181 C 
ATOM     34  C   UNL     1      28.884  87.206   7.606  1.00  0.00     0.181 C 
ATOM     35  O   UNL     1      28.128  86.135   7.024  1.00  0.00    -0.378 OA
ENDBRANCH  27  28
ENDBRANCH   7  22
TORSDOF 4
ENDMDL
MODEL 3
REMARK VINA RESULT:      -9.6      7.840     13.136
REMARK SMILES CC(=N)Nc1ccc(-c2ncnc3cc(C4=CCN(C(=O)N5CCOCC5)CC4)sc23)cc1
REMARK SMILES IDX 9 1 10 2 11 3 12 4 13 5 14 6 15 7 30 8 31 9 8 10 5 11 6 12
REMARK SMILES IDX 33 13 7 14 32 15 4 16 2 17 3 18 1 19 16 22 17 23 29 24 18 25
REMARK SMILES IDX 28 26 19 27 20 28 21 29 22 30 23 31 27 32 24 33 26 34 25 35
REMARK H PARENT 3 20 4 21
ROOT
ATOM      1  C   UNL     1      37.595  91.948  11.220  1.00  0.00     0.091 A 
ATOM      2  N   UNL     1      38.892  91.855  11.607  1.00  0.00    -0.235 NA
ATOM      3  C   UNL     1      39.384  90.649  11.916  1.00  0.00     0.223 A 
ATOM      4  N   UNL     1      38.742  89.481  11.870  1.00  0.00    -0.235 NA
ATOM      5  C   UNL     1      37.456  89.569  11.459  1.00  0.00     0.086 A 
ATOM      6  C   UNL     1      36.579  88.457  11.306  1.00  0.00     0.049 A 
ATOM      7  C   UNL     1      35.314  88.783  10.852  1.00  0.00     0.033 A 
ATOM      8  S   UNL     1      35.223  90.498  10.651  1.00  0.00    -0.132 S 
ATOM      9  C   UNL     1      36.844  90.772  11.132  1.00  0.00     0.080 A 
ENDROOT
BRANCH   1  10
ATOM     10  C   UNL     1      37.101  93.289  10.900  1.00  0.00     0.002 A 
ATOM     11  C   UNL     1      36.133  95.929  10.379  1.00  0.00     0.039 A 
ATOM     12  C   UNL     1      35.501  94.795   9.840  1.00  0.00     0.027 A 
ATOM     13  C   UNL     1      37.265  95.717  11.167  1.00  0.00     0.027 A 
ATOM     14  C   UNL     1      35.971  93.499  10.100  1.00  0.00     0.012 A 
ATOM     15  C   UNL     1      37.735  94.422  11.431  1.00  0.00     0.012 A 
BRANCH  11  16
ATOM     16  N   UNL     1      35.607  97.200  10.079  1.00  0.00    -0.344 N 
ATOM     17  C   UNL     1      34.297  97.606   9.969  1.00  0.00     0.094 C 
ATOM     18  N   UNL     1      33.252  96.919  10.299  1.00  0.00    -0.289 NA
ATOM     19  C   UNL     1      34.065  98.998   9.414  1.00  0.00     0.087 C 
ATOM     20  H   UNL     1      32.391  97.448  10.120  1.00  0.00     0.189 HD
ATOM     21  H   UNL     1      36.319  97.879   9.836  1.00  0.00     0.168 HD
ENDBRANCH  11  16
ENDBRANCH   1  10
BRANCH   7  22
ATOM     22  C   UNL     1      34.211  87.877  10.592  1.00  0.00    -0.031 C 
ATOM     23  C   UNL     1      34.348  86.549  10.789  1.00  0.00    -0.001 C 
ATOM     24  C   UNL     1      32.844  88.341  10.116  1.00  0.00     0.058 C 
ATOM     25  C   UNL     1      33.291  85.508  10.542  1.00  0.00     0.149 C 
ATOM     26  C   UNL     1      31.732  87.459  10.676  1.00  0.00     0.126 C 
ATOM     27  N   UNL     1      31.948  86.045  10.381  1.00  0.00    -0.321 N 
BRANCH  27  28
ATOM     28  C   UNL     1      30.975  85.154   9.958  1.00  0.00     0.320 C 
ATOM     29  O   UNL     1      31.034  84.607   8.854  1.00  0.00    -0.248 OA
ATOM     30  N   UNL     1      29.903  84.935  10.819  1.00  0.00    -0.320 N 
ATOM     31  C   UNL     1      28.704  84.360  10.198  1.00  0.00     0.150 C 
ATOM     32  C   UNL     1      30.183  84.315  12.122  1.00  0.00     0.150 C 
ATOM     33  C   UNL     1      27.509  84.384  11.157  1.00  0.00     0.181 C 
ATOM     34  C   UNL     1      28.950  84.367  13.030  1.00  0.00     0.181 C 
ATOM     35  O   UNL     1      27.823  83.738  12.404  1.00  0.00    -0.378 OA
ENDBRANCH  27  28
ENDBRANCH   7  22
TORSDOF 4
ENDMDL
MODEL 4
REMARK VINA RESULT:      -9.4      5.668     10.698
REMARK SMILES CC(=N)Nc1ccc(-c2ncnc3cc(C4=CCN(C(=O)N5CCOCC5)CC4)sc23)cc1
REMARK SMILES IDX 9 1 10 2 11 3 12 4 13 5 14 6 15 7 30 8 31 9 8 10 5 11 6 12
REMARK SMILES IDX 33 13 7 14 32 15 4 16 2 17 3 18 1 19 16 22 17 23 29 24 18 25
REMARK SMILES IDX 28 26 19 27 20 28 21 29 22 30 23 31 27 32 24 33 26 34 25 35
REMARK H PARENT 3 20 4 21
ROOT
ATOM      1  C   UNL     1      38.243  87.910  11.549  1.00  0.00     0.091 A 
ATOM      2  N   UNL     1      39.432  87.324  11.839  1.00  0.00    -0.235 NA
ATOM      3  C   UNL     1      40.511  88.102  11.986  1.00  0.00     0.223 A 
ATOM      4  N   UNL     1      40.564  89.432  11.899  1.00  0.00    -0.235 NA
ATOM      5  C   UNL     1      39.374  90.019  11.635  1.00  0.00     0.086 A 
ATOM      6  C   UNL     1      39.175  91.426  11.521  1.00  0.00     0.049 A 
ATOM      7  C   UNL     1      37.868  91.800  11.269  1.00  0.00     0.033 A 
ATOM      8  S   UNL     1      36.898  90.375  11.142  1.00  0.00    -0.132 S 
ATOM      9  C   UNL     1      38.198  89.304  11.448  1.00  0.00     0.080 A 
ENDROOT
BRANCH   1  10
ATOM     10  C   UNL     1      37.094  87.017  11.391  1.00  0.00     0.002 A 
ATOM     11  C   UNL     1      34.890  85.210  11.154  1.00  0.00     0.039 A 
ATOM     12  C   UNL     1      35.640  85.604  10.033  1.00  0.00     0.027 A 
ATOM     13  C   UNL     1      35.252  85.750  12.389  1.00  0.00     0.027 A 
ATOM     14  C   UNL     1      36.726  86.485  10.148  1.00  0.00     0.012 A 
ATOM     15  C   UNL     1      36.339  86.628  12.507  1.00  0.00     0.012 A 
BRANCH  11  16
ATOM     16  N   UNL     1      33.814  84.321  10.966  1.00  0.00    -0.344 N 
ATOM     17  C   UNL     1      32.459  84.557  11.013  1.00  0.00     0.094 C 
ATOM     18  N   UNL     1      31.885  85.714  11.071  1.00  0.00    -0.289 NA
ATOM     19  C   UNL     1      31.560  83.336  10.985  1.00  0.00     0.087 C 
ATOM     20  H   UNL     1      30.864  85.619  11.095  1.00  0.00     0.189 HD
ATOM     21  H   UNL     1      34.108  83.357  10.860  1.00  0.00     0.168 HD
ENDBRANCH  11  16
ENDBRANCH   1  10
BRANCH   7  22
ATOM     22  C   UNL     1      37.354  93.148  11.110  1.00  0.00    -0.031 C 
ATOM     23  C   UNL     1      38.148  94.219  11.316  1.00  0.00    -0.001 C 
ATOM     24  C   UNL     1      35.926  93.452  10.686  1.00  0.00     0.058 C 
ATOM     25  C   UNL     1      37.734  95.660  11.201  1.00  0.00     0.149 C 
ATOM     26  C   UNL     1      35.856  94.721   9.842  1.00  0.00     0.126 C 
ATOM     27  N   UNL     1      36.468  95.865  10.513  1.00  0.00    -0.321 N 
BRANCH  27  28
ATOM     28  C   UNL     1      35.945  97.148  10.553  1.00  0.00     0.320 C 
ATOM     29  O   UNL     1      36.377  97.999  11.334  1.00  0.00    -0.248 OA
ATOM     30  N   UNL     1      34.880  97.421   9.699  1.00  0.00    -0.320 N 
ATOM     31  C   UNL     1      34.075  98.597  10.053  1.00  0.00     0.150 C 
ATOM     32  C   UNL     1      35.124  97.354   8.251  1.00  0.00     0.150 C 
ATOM     33  C   UNL     1      32.796  98.675   9.213  1.00  0.00     0.181 C 
ATOM     34  C   UNL     1      33.809  97.442   7.469  1.00  0.00     0.181 C 
ATOM     35  O   UNL     1      33.090  98.637   7.804  1.00  0.00    -0.378 OA
ENDBRANCH  27  28
ENDBRANCH   7  22
TORSDOF 4
ENDMDL
MODEL 5
REMARK VINA RESULT:      -9.3      5.447     10.632
REMARK SMILES CC(=N)Nc1ccc(-c2ncnc3cc(C4=CCN(C(=O)N5CCOCC5)CC4)sc23)cc1
REMARK SMILES IDX 9 1 10 2 11 3 12 4 13 5 14 6 15 7 30 8 31 9 8 10 5 11 6 12
REMARK SMILES IDX 33 13 7 14 32 15 4 16 2 17 3 18 1 19 16 22 17 23 29 24 18 25
REMARK SMILES IDX 28 26 19 27 20 28 21 29 22 30 23 31 27 32 24 33 26 34 25 35
REMARK H PARENT 3 20 4 21
ROOT
ATOM      1  C   UNL     1      38.511  88.112  12.225  1.00  0.00     0.091 A 
ATOM      2  N   UNL     1      39.681  87.686  12.763  1.00  0.00    -0.235 NA
ATOM      3  C   UNL     1      40.672  88.571  12.926  1.00  0.00     0.223 A 
ATOM      4  N   UNL     1      40.647  89.872  12.632  1.00  0.00    -0.235 NA
ATOM      5  C   UNL     1      39.472  90.303  12.118  1.00  0.00     0.086 A 
ATOM      6  C   UNL     1      39.198  91.653  11.753  1.00  0.00     0.049 A 
ATOM      7  C   UNL     1      37.920  91.866  11.269  1.00  0.00     0.033 A 
ATOM      8  S   UNL     1      37.077  90.356  11.246  1.00  0.00    -0.132 S 
ATOM      9  C   UNL     1      38.388  89.465  11.894  1.00  0.00     0.080 A 
ENDROOT
BRANCH   1  10
ATOM     10  C   UNL     1      37.461  87.105  12.060  1.00  0.00     0.002 A 
ATOM     11  C   UNL     1      35.388  85.180  11.644  1.00  0.00     0.039 A 
ATOM     12  C   UNL     1      35.427  85.979  12.800  1.00  0.00     0.027 A 
ATOM     13  C   UNL     1      36.412  85.351  10.712  1.00  0.00     0.027 A 
ATOM     14  C   UNL     1      36.440  86.929  13.002  1.00  0.00     0.012 A 
ATOM     15  C   UNL     1      37.424  86.302  10.911  1.00  0.00     0.012 A 
BRANCH  11  16
ATOM     16  N   UNL     1      34.342  84.248  11.505  1.00  0.00    -0.344 N 
ATOM     17  C   UNL     1      33.008  84.456  11.234  1.00  0.00     0.094 C 
ATOM     18  N   UNL     1      32.466  85.573  10.871  1.00  0.00    -0.289 NA
ATOM     19  C   UNL     1      32.096  83.253  11.367  1.00  0.00     0.087 C 
ATOM     20  H   UNL     1      31.456  85.464  10.729  1.00  0.00     0.189 HD
ATOM     21  H   UNL     1      34.623  83.298  11.717  1.00  0.00     0.168 HD
ENDBRANCH  11  16
ENDBRANCH   1  10
BRANCH   7  22
ATOM     22  C   UNL     1      37.345  93.122  10.827  1.00  0.00    -0.031 C 
ATOM     23  C   UNL     1      36.074  93.178  10.376  1.00  0.00    -0.001 C 
ATOM     24  C   UNL     1      38.098  94.442  10.858  1.00  0.00     0.058 C 
ATOM     25  C   UNL     1      35.369  94.410   9.876  1.00  0.00     0.149 C 
ATOM     26  C   UNL     1      37.159  95.610  11.146  1.00  0.00     0.126 C 
ATOM     27  N   UNL     1      36.036  95.659  10.213  1.00  0.00    -0.321 N 
BRANCH  27  28
ATOM     28  C   UNL     1      35.540  96.804   9.611  1.00  0.00     0.320 C 
ATOM     29  O   UNL     1      36.263  97.553   8.949  1.00  0.00    -0.248 OA
ATOM     30  N   UNL     1      34.195  97.094   9.820  1.00  0.00    -0.320 N 
ATOM     31  C   UNL     1      33.804  98.486   9.562  1.00  0.00     0.150 C 
ATOM     32  C   UNL     1      33.197  96.149   9.297  1.00  0.00     0.150 C 
ATOM     33  C   UNL     1      32.378  98.767  10.050  1.00  0.00     0.181 C 
ATOM     34  C   UNL     1      31.797  96.488   9.817  1.00  0.00     0.181 C 
ATOM     35  O   UNL     1      31.436  97.836   9.486  1.00  0.00    -0.378 OA
ENDBRANCH  27  28
ENDBRANCH   7  22
TORSDOF 4
ENDMDL
MODEL 6
REMARK VINA RESULT:      -9.1      7.033     13.217
REMARK SMILES CC(=N)Nc1ccc(-c2ncnc3cc(C4=CCN(C(=O)N5CCOCC5)CC4)sc23)cc1
REMARK SMILES IDX 9 1 10 2 11 3 12 4 13 5 14 6 15 7 30 8 31 9 8 10 5 11 6 12
REMARK SMILES IDX 33 13 7 14 32 15 4 16 2 17 3 18 1 19 16 22 17 23 29 24 18 25
REMARK SMILES IDX 28 26 19 27 20 28 21 29 22 30 23 31 27 32 24 33 26 34 25 35
REMARK H PARENT 3 20 4 21
ROOT
ATOM      1  C   UNL     1      37.093  94.274  10.778  1.00  0.00     0.091 A 
ATOM      2  N   UNL     1      38.323  94.735  11.119  1.00  0.00    -0.235 NA
ATOM      3  C   UNL     1      39.249  93.856  11.521  1.00  0.00     0.223 A 
ATOM      4  N   UNL     1      39.116  92.532  11.615  1.00  0.00    -0.235 NA
ATOM      5  C   UNL     1      37.898  92.069  11.251  1.00  0.00     0.086 A 
ATOM      6  C   UNL     1      37.528  90.692  11.242  1.00  0.00     0.049 A 
ATOM      7  C   UNL     1      36.236  90.450  10.811  1.00  0.00     0.033 A 
ATOM      8  S   UNL     1      35.480  91.963  10.449  1.00  0.00    -0.132 S 
ATOM      9  C   UNL     1      36.863  92.896  10.834  1.00  0.00     0.080 A 
ENDROOT
BRANCH   1  10
ATOM     10  C   UNL     1      36.113  95.274  10.351  1.00  0.00     0.002 A 
ATOM     11  C   UNL     1      34.202  97.271   9.615  1.00  0.00     0.039 A 
ATOM     12  C   UNL     1      33.948  95.902   9.418  1.00  0.00     0.027 A 
ATOM     13  C   UNL     1      35.434  97.619  10.170  1.00  0.00     0.027 A 
ATOM     14  C   UNL     1      34.882  94.921   9.785  1.00  0.00     0.012 A 
ATOM     15  C   UNL     1      36.368  96.641  10.540  1.00  0.00     0.012 A 
BRANCH  11  16
ATOM     16  N   UNL     1      33.220  98.201   9.225  1.00  0.00    -0.344 N 
ATOM     17  C   UNL     1      33.251  99.146   8.225  1.00  0.00     0.094 C 
ATOM     18  N   UNL     1      34.151  99.257   7.304  1.00  0.00    -0.289 NA
ATOM     19  C   UNL     1      32.111 100.146   8.205  1.00  0.00     0.087 C 
ATOM     20  H   UNL     1      33.945 100.043   6.678  1.00  0.00     0.189 HD
ATOM     21  H   UNL     1      32.412  98.207   9.836  1.00  0.00     0.168 HD
ENDBRANCH  11  16
ENDBRANCH   1  10
BRANCH   7  22
ATOM     22  C   UNL     1      35.577  89.164  10.686  1.00  0.00    -0.031 C 
ATOM     23  C   UNL     1      36.249  88.018  10.922  1.00  0.00    -0.001 C 
ATOM     24  C   UNL     1      34.111  89.010  10.313  1.00  0.00     0.058 C 
ATOM     25  C   UNL     1      35.687  86.627  10.811  1.00  0.00     0.149 C 
ATOM     26  C   UNL     1      33.487  87.801  11.004  1.00  0.00     0.126 C 
ATOM     27  N   UNL     1      34.234  86.572  10.748  1.00  0.00    -0.321 N 
BRANCH  27  28
ATOM     28  C   UNL     1      33.676  85.340  10.447  1.00  0.00     0.320 C 
ATOM     29  O   UNL     1      33.295  84.569  11.331  1.00  0.00    -0.248 OA
ATOM     30  N   UNL     1      33.601  84.994   9.100  1.00  0.00    -0.320 N 
ATOM     31  C   UNL     1      33.429  83.561   8.828  1.00  0.00     0.150 C 
ATOM     32  C   UNL     1      32.751  85.813   8.225  1.00  0.00     0.150 C 
ATOM     33  C   UNL     1      33.604  83.249   7.338  1.00  0.00     0.181 C 
ATOM     34  C   UNL     1      32.970  85.449   6.753  1.00  0.00     0.181 C 
ATOM     35  O   UNL     1      32.729  84.053   6.526  1.00  0.00    -0.378 OA
ENDBRANCH  27  28
ENDBRANCH   7  22
TORSDOF 4
ENDMDL
MODEL 7
REMARK VINA RESULT:      -8.6      5.636     10.736
REMARK SMILES CC(=N)Nc1ccc(-c2ncnc3cc(C4=CCN(C(=O)N5CCOCC5)CC4)sc23)cc1
REMARK SMILES IDX 9 1 10 2 11 3 12 4 13 5 14 6 15 7 30 8 31 9 8 10 5 11 6 12
REMARK SMILES IDX 33 13 7 14 32 15 4 16 2 17 3 18 1 19 16 22 17 23 29 24 18 25
REMARK SMILES IDX 28 26 19 27 20 28 21 29 22 30 23 31 27 32 24 33 26 34 25 35
REMARK H PARENT 3 20 4 21
ROOT
ATOM      1  C   UNL     1      38.389  87.836  11.423  1.00  0.00     0.091 A 
ATOM      2  N   UNL     1      39.447  87.259  12.045  1.00  0.00    -0.235 NA
ATOM      3  C   UNL     1      40.363  88.049  12.617  1.00  0.00     0.223 A 
ATOM      4  N   UNL     1      40.358  89.382  12.671  1.00  0.00    -0.235 NA
ATOM      5  C   UNL     1      39.290  89.958  12.073  1.00  0.00     0.086 A 
ATOM      6  C   UNL     1      39.052  91.362  12.024  1.00  0.00     0.049 A 
ATOM      7  C   UNL     1      37.883  91.722  11.378  1.00  0.00     0.033 A 
ATOM      8  S   UNL     1      37.103  90.289  10.804  1.00  0.00    -0.132 S 
ATOM      9  C   UNL     1      38.292  89.231  11.437  1.00  0.00     0.080 A 
ENDROOT
BRANCH   1  10
ATOM     10  C   UNL     1      37.418  86.931  10.806  1.00  0.00     0.002 A 
ATOM     11  C   UNL     1      35.560  85.187   9.507  1.00  0.00     0.039 A 
ATOM     12  C   UNL     1      35.132  86.174  10.411  1.00  0.00     0.027 A 
ATOM     13  C   UNL     1      36.933  85.079   9.279  1.00  0.00     0.027 A 
ATOM     14  C   UNL     1      36.041  87.035  11.044  1.00  0.00     0.012 A 
ATOM     15  C   UNL     1      37.844  85.940   9.908  1.00  0.00     0.012 A 
BRANCH  11  16
ATOM     16  N   UNL     1      34.593  84.359   8.906  1.00  0.00    -0.344 N 
ATOM     17  C   UNL     1      33.783  84.598   7.820  1.00  0.00     0.094 C 
ATOM     18  N   UNL     1      33.871  85.597   7.004  1.00  0.00    -0.289 NA
ATOM     19  C   UNL     1      32.687  83.582   7.558  1.00  0.00     0.087 C 
ATOM     20  H   UNL     1      33.149  85.545   6.276  1.00  0.00     0.189 HD
ATOM     21  H   UNL     1      34.436  83.496   9.414  1.00  0.00     0.168 HD
ENDBRANCH  11  16
ENDBRANCH   1  10
BRANCH   7  22
ATOM     22  C   UNL     1      37.367  93.062  11.175  1.00  0.00    -0.031 C 
ATOM     23  C   UNL     1      38.201  94.122  11.116  1.00  0.00    -0.001 C 
ATOM     24  C   UNL     1      35.889  93.369  10.991  1.00  0.00     0.058 C 
ATOM     25  C   UNL     1      37.792  95.556  10.927  1.00  0.00     0.149 C 
ATOM     26  C   UNL     1      35.680  94.547  10.045  1.00  0.00     0.126 C 
ATOM     27  N   UNL     1      36.422  95.733  10.466  1.00  0.00    -0.321 N 
BRANCH  27  28
ATOM     28  C   UNL     1      35.934  97.029  10.466  1.00  0.00     0.320 C 
ATOM     29  O   UNL     1      36.559  97.957  10.986  1.00  0.00    -0.248 OA
ATOM     30  N   UNL     1      34.684  97.232   9.887  1.00  0.00    -0.320 N 
ATOM     31  C   UNL     1      34.005  98.475  10.275  1.00  0.00     0.150 C 
ATOM     32  C   UNL     1      34.541  96.967   8.448  1.00  0.00     0.150 C 
ATOM     33  C   UNL     1      32.552  98.494   9.790  1.00  0.00     0.181 C 
ATOM     34  C   UNL     1      33.068  97.006   8.028  1.00  0.00     0.181 C 
ATOM     35  O   UNL     1      32.467  98.262   8.372  1.00  0.00    -0.378 OA
ENDBRANCH  27  28
ENDBRANCH   7  22
TORSDOF 4
ENDMDL
